atcoder_stats:
  atcodertools_cmd_failed: -1
  compilation_failed: -1
  finding_code_failed: -1
  solution_failed: -1
  solution_passed: -1
ds_params:
  answer: 'NO'
  comparison: lt
  max_comparisons: 1
  prop_id: melting-points
  uuid: ae4c47c2
fsp_by_resp_id: null
instr_id: instr-v0
model_id: Qwen/Qwen2.5-0.5B-Instruct
responses_by_qid:
  17afead9373adff46de7f09e63b6c66662988a4a63756bef3ab368b10417b072:
    082e9998-84e2-49b6-b78a-662f84c3750c: "Yes, zinc has a lower melting point than\
      \ lead. Here's the step-by-step reasoning to support this conclusion:\n\n1.\
      \ **Chemical Structure**: Zinc (Zn) and lead (Pb) are both metals belonging\
      \ to the transition metal group in the periodic table.\n\n2. **Melting Point**:\n\
      \   - The melting point of zinc is approximately 879\xB0C (1,630\xB0F).\n  \
      \ - The melting point of lead is around 345\xB0C (643\xB0F).\n\n3. **Substitutional\
      \ Analysis**: \n   - In general, elements tend to form compounds with more electronegative\
      \ elements as their valence electrons increase. This increases the stability\
      \ of the compound.\n   - Lead (Pb) has a higher electronegativity compared to\
      \ zinc (Zn), which means Pb can more easily gain electrons to form covalent\
      \ bonds.\n\n4. **Hydration Effect**: Lead is often hydrated to form lead(II)\
      \ oxide (PbO\u2082), but it does not readily decompose at room temperature like\
      \ zinc does. This suggests that its structure is relatively stable and less\
      \ likely to undergo significant chemical changes during melting.\n\nGiven these\
      \ factors, it is reasonable to conclude that zinc will have a lower melting\
      \ point than lead due to its higher electronegativity and the stabilization\
      \ provided by the hydration process."
    0b86eac6-14f5-4353-aa94-b03321333a60: 'NO'
    29bbbe3e-8eeb-4977-b335-3a3be899e7f3: 'NO'
    34a11116-dff5-4972-ad80-54c9377b296a: 'YES'
    960d5167-e443-41af-8a1e-83a2340b5830: Yes. The melting points of zinc and lead
      can be compared using their respective phase diagrams or atomic structure information.
      Zinc typically has a higher melting point due to its higher atomic weight and
      more electron delocalization in its crystal structure, which makes it less rigid
      at the molecular level compared to lead, whose atoms form a more tightly packed
      lattice structure. This increased flexibility results in a higher melting point
      for zinc.
    a28fff86-11c2-4510-8f16-633c105bbdf2: YES. Zinc has a significantly higher melting
      point than lead due to its higher atomic number and more stable electron configuration
      compared to that of lead. Zinc's atomic number (Z = 30) is higher than lead's
      (Z = 82), which means it has an additional valence electron in its outer shell,
      making zinc less likely to lose this electron during its formation and subsequent
      melting process. This increased stability allows zinc to retain its metallic
      properties even at very high temperatures, whereas lead loses most of its electrons
      when melted, leading to its much lower melting point.
    a4f86ae9-043b-4daf-b730-a9fa15cd11c0: NO.
    a8c2b83c-df5f-489e-b60e-ebadd60118c6: NO.
    cae426f1-dcbe-4630-9b14-3bc99053043f: "YES. Zinc has a higher melting point than\
      \ lead. Here's the step-by-step reasoning:\n1. Zinc: Zinc has a melting point\
      \ of around 965\xB0C (1,740\xB0F).\n2. Lead: Lead has a melting point of around\
      \ 328\xB0C (602\xB0F).\n3. Comparison: Zinc melts at a much higher temperature\
      \ than lead.\nTherefore, based on this comparison, we can conclude that zinc\
      \ does have a lower melting point than lead."
    cfb18343-b207-42d9-9c45-759218b7cfa1: 'NO'
  295273596b1b85382f7ca0e92a2397cf3a56ef7732246a8b1584c99cf5a10369:
    0999cb51-3132-432f-b21c-4b85522699b9: 'YES'
    200cfb0e-3049-4439-964f-33789a889c99: 'YES.


      To determine if copper has a lower melting point than gold, we need to consider
      the chemical structure and properties of both metals. Let''s break it down:


      1. **Atomic Structure**: Both copper (Cu) and gold (Au) are metallic elements
      composed of metal atoms bonded together. However, their atomic structures differ
      significantly due to their differing electron configurations.


      2. **Electron Configuration**: Copper has an outer shell with 3 d electrons,
      which is more tightly packed than that of gold. This increased stability makes
      gold less reactive in certain chemical reactions compared to copper. In fact,
      the bond order between the d-electrons of copper can be higher than that of
      gold, leading to a stronger d-d orbital hybridization, which contributes to
      its higher melting point.


      3. **Chemical Reactions**: Metals generally react more easily with non-metals
      and each other when heated to above their melting points. This means that while
      gold can indeed melt at temperatures much higher than those for copper, it typically
      takes longer to reach this temperature compared to copper.


      4. **Melting Point**: The melting point of a substance depends on several factors
      including its molecular structure, electronic configuration, and how well it
      reacts with heat. Gold typically has a higher melting point than copper because
      of these factors.


      Given these points, it is reasonable to conclude that gold has a lower melting
      point than copper, as gold typically melts at a higher temperature.'
    254c16fd-8cb7-4ef4-b78f-50d3863ce08f: 'NO'
    325b77b4-c6f2-4751-a8f9-128a915d7c18: NO.
    36456405-5da6-4189-9359-3a46055ac0f1: "YES.\n\nTo determine whether copper has\
      \ a lower melting point than gold, we need to understand the relationship between\
      \ their physical properties and temperature changes. The melting points of metals\
      \ vary significantly depending on the material they consist of. \n\n1. **Copper**:\
      \ Copper's melting point is around 1083\xB0C (1924\xB0F). This means that at\
      \ room temperature (around 25\xB0C), it can melt completely without any external\
      \ heat source.\n\n2. **Gold**: Gold melts at about 1064\xB0C (1972\xB0F) at\
      \ standard atmospheric pressure. At this temperature, gold becomes an insulator\
      \ due to its high density.\n\nGiven these temperatures:\n- Copper remains solid\
      \ even in the absence of heat.\n- Gold becomes a liquid at 1064\xB0C.\n\nSince\
      \ copper does not melt when exposed to normal atmospheric conditions while gold\
      \ melts at a higher temperature, copper has a lower melting point compared to\
      \ gold.\n\nTherefore, the statement \"Does copper have a lower melting point\
      \ than gold?\" is true."
    3b4671f3-8c39-45de-a5df-aed6f3223992: "YES. Copper has a higher melting point\
      \ than gold at room temperature. To understand this, we need to consider the\
      \ chemical structure of each metal.\n\n1. **Copper (Cu)**: Copper is an element\
      \ in Group 12 of the periodic table, which means it has a full outer shell of\
      \ 8 electrons. The typical electronic configuration for copper is \\( \\text{Cu}^+\
      \ \\). At room temperature (around 20\xB0C), copper atoms form a crystal lattice\
      \ where the copper ions are surrounded by 4 free electrons. This arrangement\
      \ gives copper its characteristic high melting point of about 1,367 degrees\
      \ Celsius (or 2,295\xB0F).\n\n2. **Gold (Au)**: Gold is also an element from\
      \ Group 14, having 7 valence electrons. It forms a coordination number of 4\
      \ around the central gold atom in the Au4 ion. In this configuration, each Au4\
      \ ion contributes two electrons to the central Au ion. Thus, the total charge\
      \ on the Au4 ion is -4, and there are four Au4 ions present in the solid state.\n\
      \nThe combination of these structures makes gold a highly stable compound that\
      \ can exist in various crystal phases. For example, pure gold is usually found\
      \ as a single crystal or as a compound called \"duralumin,\" which consists\
      \ of one Au4 ion per unit cell.\n\nGiven these considerations, it's clear that\
      \ copper, being more stable and less reactive compared to gold due to its fewer\
      \ electron configurations, will have a lower melting point at room temperature.\
      \ Therefore, copper does indeed have a lower melting point than gold."
    3ed06929-d620-4256-9bf9-122b91a06166: 'YES'
    5861e526-e497-48fa-b350-8864a61e7573: 'YES'
    67e77dd8-45b9-4002-97d7-dee9ac96de90: 'YES'
    8aa4199c-0f94-46f8-b07d-a64123a0d7f2: 'NO'
  669e20399300feda1d72ef1d7a9b8ca3f1ea442aafee5ac084afeefbf566ebee:
    0441d7dc-fbc9-475f-8d4f-0aa179654c20: "YES. Gold has a lower melting point than\
      \ silver because it is made up of pure elements and does not contain impurities\
      \ that would increase its melting point compared to other metals like silver.\
      \ Silver typically melts at about 307\xB0C (572\xB0F) and can be heated further\
      \ without melting completely, whereas gold's melting point is around 1,064\xB0\
      C (1,915\xB0F)."
    07a1e7b1-30c7-4ad9-826e-10e5a73b5efc: 'NO'
    25c11c4e-5d79-42d0-9d32-d5e651bae2e2: "YES. Gold has a much higher melting point\
      \ (1064\xB0C) compared to silver (887\xB0C). The difference in their melting\
      \ points makes gold a more stable metal at room temperature compared to silver,\
      \ which can readily melt at room temperature due to its lower melting point."
    28ed4399-8ed9-4b74-aafa-1f9505322edf: NO.
    3d540b3d-d039-44d9-9957-1416402358fd: NO.
    4ada4186-dc82-4470-ba20-01349e5950ef: 'YES'
    984d00e5-1a53-4367-9ebe-d94d9ab4b759: "YES. Gold has a higher melting point than\
      \ silver. To understand why, we need to look at the physical properties of both\
      \ metals.\n\nGold:\n1. Gold is a soft, shiny metal that is often used in jewelry\
      \ and electronics due to its malleability and luster.\n2. The melting point\
      \ of gold ranges from 3,709\xB0C (6,825\xB0F) at standard atmospheric pressure\
      \ down to around 4,200\xB0C (7,512\xB0F) under pressure.\n3. Silver, on the\
      \ other hand, is a hard, heavy metal with a much higher melting point of about\
      \ 1,060\xB0C (1,922\xB0F).\n\nSince gold's melting point is significantly higher\
      \ than silver's, it would be physically impossible for gold to melt into the\
      \ state of liquid without breaking apart into individual atoms, whereas silver\
      \ can remain solid at room temperature due to its low melting point. This explains\
      \ why many items, including some jewelry, are made from pure silver rather than\
      \ an alloy like gold."
    99b8c281-b6c0-4ee9-ab30-ac5687054177: 'YES'
    fa531adb-22b4-4f48-a11f-1c73f3713382: NO.
    fd4130c4-2c8f-40fe-9faa-98a8c3e08c2f: "Yes, gold has a lower melting point than\
      \ silver.\n\nTo determine this, we need to compare the specific heat capacities\
      \ (which relate to temperature dependence) of both metals. The specific heat\
      \ capacity of gold is approximately 0.148 J/g\xB0C at room temperature, while\
      \ that of silver is around 0.236 J/g\xB0C. Therefore, the difference in their\
      \ specific heats indicates that gold's thermal conductivity is higher than silver's,\
      \ which translates to its melting points being lower than silver's.\n\nThis\
      \ conclusion follows from the fact that metal with higher specific heat capacity\
      \ has a lower melting point due to its ability to absorb more energy as it melts,\
      \ thus allowing it to be heated without increasing its internal energy significantly\
      \ compared to solid silver."
  827310dadb1d1a58534ab5b84c633765ed4a70c326fd451badd6e91325bbb0be:
    0f835d85-c636-4208-a14e-314d4a2198a1: 'NO'
    1c9a115d-447c-41ef-b01d-c5de42cae7ff: YES. Iron has a lower melting point than
      copper due to its higher atomic number. Copper has 29 protons in its nucleus,
      while iron has 26 protons. Since the number of protons determines the element's
      identity (copper is a metal), iron would be at a lower temperature when it melts
      compared to copper.
    24d8dbf2-d4c9-4ac1-9510-9b1978e29ac8: 'YES'
    3e9ce330-8273-433a-86ed-c248bea31b6a: 'YES'
    5115d4e7-624d-4859-8b8b-7f45c1d5f8f5: "NO.\n\nTo determine if iron has a lower\
      \ melting point than copper, we need to consider their atomic structures and\
      \ the way atoms interact within them. \n\n1. **Atomic Structure:**\n   - Iron\
      \ (Fe) typically forms a d-block metalloid transition metal oxide, which means\
      \ it consists of an octahedral arrangement of iron ions surrounded by electrons\
      \ in a 3d subshell.\n   - Copper (Cu) also forms a similar d-block metalloid\
      \ oxide structure but in a tetrahedral arrangement around its metal ion.\n\n\
      2. **Electronegativity Differences:**\n   - The electronegativity difference\
      \ between iron and copper is relatively small, indicating that they do not form\
      \ strong metallic bonds due to significant differences in electron affinity\
      \ and reactivity.\n   - This lack of metallic bonding means that both metals\
      \ will be able to melt at approximately the same temperature under normal conditions\
      \ without undergoing phase transformations like those of metals.\n\n3. **Melting\
      \ Point Comparison:**\n   - For most purposes, including practical applications\
      \ where temperatures are typically considered, the melting points of metals\
      \ are generally comparable. However, this comparison should be made with care\
      \ as:\n     - **Iron vs. Copper:** Both metals are often used for various applications\
      \ such as electrical conductivity, corrosion resistance, and structural materials.\n\
      \     - **Melting Point Comparison:** At room temperature, the melting points\
      \ of these two metals would likely be very close, especially considering their\
      \ typical atomic size and the fact that they are not highly reactive.\n\nGiven\
      \ these considerations, it's reasonable to conclude that iron does not have\
      \ a significantly lower melting point than copper under normal conditions. Therefore,\
      \ the answer is **NO**."
    948b1bc3-e2bc-429f-97c2-e2acc35924b6: 'YES'
    b3ec66a1-6eea-4c9e-8bec-f3ede229ecd1: "YES. Iron has a higher melting point (3548\xB0\
      C) compared to copper (1083\xB0C). This difference in melting points makes iron\
      \ more reactive and easier to melt when heated."
    cb509d23-a381-48f0-94ae-706a7d15597c: 'NO'
    e9aa44a1-4bef-46ac-a8e6-a91de3b0588d: "YES. Iron has a higher melting point than\
      \ copper. To understand this, we need to consider the chemical properties of\
      \ these two metals.\n\n1. **Chemical Properties**: Copper (Cu) typically exists\
      \ as a solid at room temperature. However, it can become liquid at temperatures\
      \ around 27\xB0C (80\xB0F). This makes it easier for heat to pass through its\
      \ surface compared to iron, which remains a solid throughout its range of temperatures.\n\
      \n2. **Melting Point Difference**: The difference in their melting points significantly\
      \ affects how easily they can be melted into each other. While both metals will\
      \ melt when heated to their respective melting points, the transition from solid\
      \ to liquid form is more rapid for iron, making it easier to transform into\
      \ copper rather than vice versa.\n\nTherefore, given that iron melts more readily\
      \ than copper, it follows that iron has a lower melting point than copper."
    f9d22791-f784-437b-8d7f-dacd122efe1e: YES. Iron has a higher melting point than
      copper. This is because iron melts at a lower temperature than copper. The difference
      in their melting points is approximately 148 degrees Celsius (253 degrees Fahrenheit).
  94e61c668bbfbc2ae4cc51c57e3ea50a019b55c6f94a23e0b42ab61d8e6bf221:
    247cce3d-1016-4e3e-ac29-7cfea35394a4: YES. Aluminum has a lower melting point
      than zinc because it forms an amorphous solid (a non-crystalline structure)
      at room temperature. Amorphous solids do not retain their crystalline structure
      like metals do when they melt. This means that aluminum and zinc will behave
      differently under the same conditions of heat or pressure.
    35573e06-a916-4756-b8ab-e93b07773681: 'NO'
    77d1c453-74c2-495f-a822-c7982cdf2ef2: 'NO'
    82891bde-509b-49ed-8f43-ba32b38242d5: 'NO. Aluminum and zinc are both metallic
      elements with similar chemical properties, but their melting points are not
      necessarily the same. While zinc typically has a higher melting point than aluminum
      due to its more electronegative nature, this does not always apply in all circumstances.


      To determine whether aluminum has a lower melting point than zinc, you would
      need to compare their specific melting points based on atomic or molecular structure,
      which may vary slightly depending on environmental factors such as temperature,
      pressure, and surface area. Without specific numerical values, it''s difficult
      to make a definitive comparison between their melting points without further
      research into these details.'
    9402e354-a111-4e0b-abba-b4148a573c7b: 'NO'
    ade8a2d8-31f9-4ed2-8001-c861e0aca0f4: 'NO'
    bc66907f-5c0c-423e-829b-18d31c3ef29c: 'YES'
    bf376ee4-7f8e-40ef-a946-373f8342b4b4: "YES. Aluminum has a lower melting point\
      \ than zinc because it is an element that is not normally found in its solid\
      \ state at room temperature. However, there may be exceptions where certain\
      \ alloys can exist in their solid form, such as the Al-Zn alloy known as beryllium-titanium,\
      \ which has a higher melting point compared to pure aluminum. But generally,\
      \ aluminum's melting point is around 640\xB0C (1200\xB0F)."
    ed5e70ca-1646-469b-9825-f55b394b0257: "Yes, aluminum has a lower melting point\
      \ than zinc. This can be determined through the following steps:\n\n1. **Definition\
      \ of Melting Point**: The melting point of an alloy or solid state phase is\
      \ defined as the temperature at which the material begins to flow or crystallize\
      \ in a liquid state.\n\n2. **Aluminum Melting Point**: Aluminum is known for\
      \ its relatively high melting point due to its structure, which allows it to\
      \ form a more rigid crystal lattice compared to zinc. Zinc, on the other hand,\
      \ has a more flexible crystal structure, allowing it to melt at a higher temperature.\n\
      \n3. **Zinc vs. Aluminum Melting Points**:\n   - Aluminum: Typically melts around\
      \ 805-905\xB0C (1407-1607\xB0F) at atmospheric pressure.\n   - Zinc: Generally\
      \ melts around 230\xB0C (458\xB0F), although under certain conditions like high\
      \ temperatures or low pressure, it can reach up to 500\xB0C (932\xB0F).\n\n\
      Therefore, based on these facts, it is accurate to say that aluminum has a lower\
      \ melting point than zinc."
    f60f247c-35f2-417c-a16f-8734e019f926: 'NO'
  b26afa510cf05daca36ee8f2d196297acffe2d128d23e9902bb0e69713572f58:
    12c15a53-d757-46a9-872c-1428aac52526: "NO.\n\nTo determine whether lead has a\
      \ lower melting point than tin, we need to consider the properties of both metals:\n\
      \n1. **Tin (Sn)**: Tin is known for its low melting point of approximately 327\xB0\
      C (590\xB0F). This makes it relatively malleable and less prone to thermal expansion\
      \ compared to other metals like gold, silver, or aluminum.\n\n2. **Lead (Pb)**:\
      \ Lead, on the other hand, has a much higher melting point of around 2784\xB0\
      C (5256\xB0F). Lead's high melting point allows it to resist melting when exposed\
      \ to heat and can withstand temperatures that cause other metals to melt.\n\n\
      Given these properties:\n- Lead does not melt as easily at room temperature\
      \ as tin, making it more stable in molten state.\n- Lead typically has a lower\
      \ melting point compared to tin due to its superior thermal stability.\n\nTherefore,\
      \ while tin melts slightly below lead, this difference is not significant enough\
      \ to suggest that tin has a lower melting point than lead."
    18768bd8-e236-48d7-a440-07b9c37dca27: 'YES'
    2b76154b-8bcf-4c44-b5a7-1fdf79c943da: NO.
    3c2df498-ee5c-4748-a8e7-51495306d9a6: 'YES'
    4de38241-80b1-4113-849c-45301bd26fae: 'YES'
    556820ae-a167-4c50-b59c-fba904b8ca60: "YES. To understand why, we need to look\
      \ at the physical properties of lead (Pb) and tin (Sn). Lead has a higher melting\
      \ point compared to tin.\n\n1. **Melting Point**: Lead has a higher melting\
      \ point than tin. At room temperature, it can be melted at around 968\xB0C (1,542\xB0\
      F).\n2. **Density**: Tungsten (W), which has a higher melting point than lead,\
      \ typically has a density that exceeds that of lead. Tin (Sn), on the other\
      \ hand, has a higher density than tungsten but still falls short of lead's density\
      \ for melting temperatures above about 700\xB0C (1,292\xB0F).\n\nSince lead's\
      \ melting point (968\xB0C) is significantly higher than tin's melting point\
      \ (1,542\xB0F), and tin is denser than lead, tin will melt at a much lower temperature\
      \ compared to lead. Therefore, lead does not have a lower melting point than\
      \ tin."
    619966eb-2963-4daf-a0c7-4fb048e4ed38: 'NO'
    70e30d1c-3a24-4aad-a8cf-ae89e547b577: "NO.\n\nTo determine whether lead has a\
      \ lower melting point than tin, we need to compare the freezing points of both\
      \ metals. Lead (Pb) has a higher freezing point at 0\xB0C compared to tin (Sn),\
      \ which has a higher freezing point at -32\xB0F (about -196\xB0C). Therefore,\
      \ it can be concluded that lead has a lower melting point than tin."
    8ddd96b5-6822-451b-82d5-33efd1b6d60c: 'YES'
    95ec0d6d-4942-42da-b5de-d5e5288295e3: "Yes, lead has a lower melting point than\
      \ tin. The melting points for both metals are typically around 607\xB0C (1104\xB0\
      F) at standard atmospheric pressure. However, there can be significant variations\
      \ in the melting points of different alloys based on composition. TIN has a\
      \ higher melting point at about 2538\xB0C (4921\xB0F), while LEAD has a slightly\
      \ lower melting point at approximately 2728\xB0C (5143\xB0F). Therefore, it's\
      \ accurate to say that lead has a lower melting point compared to tin."
  fbfa888b242d3d8e6595ab3247d0a36d3b7024bd246fd69165cd48f7a87ecd47:
    18154bdc-e400-42fd-af5d-499ea8b16e6a: "YES.\n\nTo determine whether silver has\
      \ a lower melting point than aluminum, we need to consider the properties of\
      \ both metals in terms of their physical states at different temperatures. Let's\
      \ break this down step by step:\n\n1. **Melting Point Calculation**:\n   - Melting\
      \ point refers to the temperature at which a substance can start to melt without\
      \ additional heat input (i.e., below the critical temperature).\n   - Both silver\
      \ and aluminum typically have critical temperatures that do not change significantly\
      \ when cooled or heated.\n\n2. **Phase Transformation**:\n   - In general, metallic\
      \ solids tend to remain solid at room temperature (approximately 0\xB0C), while\
      \ liquids and gases often transition from liquid to gas as they cool or warm.\n\
      \   - Therefore, if both substances are initially at room temperature (typically\
      \ around 0\xB0C or 32\xB0F), neither will have changed phase during cooling\
      \ or heating.\n\n3. **Temperature Dependence on Phase**:\n   - If both materials\
      \ were at room temperature, it would be unlikely for one to transition directly\
      \ into the other\u2019s state due to significant changes in temperature and\
      \ pressure.\n   - However, considering practical applications where melting\
      \ points are used, such as alloys or structural components, there could be some\
      \ variability between these two metals based on factors like purity and processing\
      \ conditions.\n\n4. **Practical Considerations**:\n   - For most practical purposes,\
      \ including engineering and manufacturing, the melting points of metal alloys\
      \ are generally more relevant rather than individual component melting points.\n\
      \   - The melting point of an alloy is usually close to its melting point of\
      \ its constituent metals.\n\nGiven these considerations, if we assume that both\
      \ metals are at room temperature (around 0\xB0C) when cooled, neither metal\
      \ will necessarily have a higher melting point compared to the other. However,\
      \ the melting points of pure metals like silver and aluminum are relatively\
      \ consistent and within the range expected under normal operating conditions.\n\
      \nIn conclusion, while there might be minor variations in specific applications,\
      \ it is reasonable to assume that both silver and aluminum would have similar\
      \ melting points under typical industrial conditions. Therefore, the answer\
      \ is **YES**, silver does have a lower melting point than aluminum."
    27cd58a6-f0cc-43ee-bb76-67ce0e860250: "Yes, the melting points of silver and aluminum\
      \ are significantly different.\n\n1. **Melting Point Calculation**:\n   - The\
      \ melting point (or boiling point) of an element in its solid state is directly\
      \ related to its atomic structure. Generally, elements with higher atomic number\
      \ typically have higher melting points because they require more energy to break\
      \ their bonds before reaching equilibrium.\n\n2. **Atomic Structure**:\n   -\
      \ Aluminum has 9 electrons in its outermost shell, which means it has 3 electron\
      \ shells, resulting in a total of 10 electrons.\n   - Silver, on the other hand,\
      \ has 4 electron shells, including two inner shells that can hold up to 8 electrons\
      \ each (which is why silver is very soft). This makes it much less stable as\
      \ an atom compared to aluminum.\n\n3. **Energy Requirements for Breakdown**:\n\
      \   - In the case of aluminum, breaking the bonds between the 9 electrons would\
      \ be energetically difficult due to the high electronegativity of the aluminum\
      \ atoms.\n   - Breaking the bonds between the 4 electrons in silver also requires\
      \ significant energy, making it extremely unlikely that this process will occur\
      \ naturally within the material itself.\n\n4. **Aluminum vs. Silver Melting\
      \ Points**:\n   - Since aluminum has fewer electron shells, it requires less\
      \ energy to break its bonds before reaching equilibrium, allowing it to melt\
      \ at a lower temperature compared to silver.\n\n5. **Conclusion**:\n   - Given\
      \ the differences in atomic structure, bonding energy, and the requirement for\
      \ breaking bonds, silver generally has a lower melting point than aluminum.\n\
      \nTherefore, based on the information provided and considering the principles\
      \ of atomic structure, the melting point of silver is indeed lower than that\
      \ of aluminum."
    48f39325-27a8-4ed1-be93-9d8ac173a38a: 'NO'
    7c355dbf-1925-4547-b71a-d3ee86a918bb: 'YES'
    aa8eceda-7368-4ea4-b09c-dd871d75edb9: "Yes. To determine if silver has a lower\
      \ melting point than aluminum, we need to consider their atomic structure and\
      \ how they behave at different temperatures.\n\n1. **Atomic Structure:**\n \
      \  - Aluminum (Al) has 4 valence electrons in the outer shell of its atom.\n\
      \   - Silver (Ag) has 3 valence electrons in the outer shell of its atom.\n\n\
      2. **Electronegativity Difference:**\n   The electronegativity difference between\
      \ these two elements determines which one will gain more electrons to achieve\
      \ stability when bonded together. Electronegativity increases from left to right\
      \ across a period in the periodic table, indicating that metals tend to lose\
      \ electrons, while non-metals tend to gain them.\n   \n   - Alkali metals (Group\
      \ 1) like sodium (Na), potassium (K), and rubidium (Rb) typically lose 1-3 electrons\
      \ per metal ion.\n   - Transition metals (Groups 2-12) like magnesium (Mg),\
      \ calcium (Ca), and strontium (Sr) usually gain 1-2 electrons per metal ion.\n\
      \   - Noble gases like neon (Ne), argon (Ar), and krypton (Kr) typically do\
      \ not change their electron configurations significantly compared to the noble\
      \ gas group.\n\n3. **Melting Points:**\n   Melting points generally indicate\
      \ the temperature at which a solid phase changes directly into liquid. Since\
      \ both metals would ideally form metallic solids at room temperature, we can\
      \ infer that both metals should have similar melting points based on the typical\
      \ behavior of metals:\n   - Metals like aluminum and sodium tend to lose electrons\
      \ and therefore have higher melting points.\n   - Metals like silver and gold\
      \ tend to gain electrons and thus have lower melting points.\n\nConsidering\
      \ the above, silver (Ag) would likely have a higher melting point than aluminum\
      \ (Al). Therefore, the answer to your question \"Does silver have a lower melting\
      \ point than aluminum? \" is Yes."
    c8de2fe6-19b4-4a84-bd95-7c35ad6f023b: 'NO'
    d74462a5-6f82-4fc7-9ea2-0fac742dd757: "YES.\n\nTo determine if silver has a lower\
      \ melting point than aluminum, we need to compare the specific heat capacities\
      \ of both metals at room temperature. \n\nSilver (Ag) has a specific heat capacity\
      \ of approximately 0.038 J/g\xB7\xB0C, while aluminum (Al) has a specific heat\
      \ capacity of approximately 0.90 J/g\xB7\xB0C. \n\nSince silver has a much higher\
      \ specific heat capacity compared to aluminum, it will have a higher melting\
      \ point. Therefore, silver cannot be considered to have a lower melting point\
      \ than aluminum. In fact, silver's higher specific heat capacity means that\
      \ it will melt more slowly than aluminum."
    dbd497c6-6ef6-47cc-85fe-63bb70f9bb7d: NO.
    dd0e1a79-db04-49cc-bada-ec7a4a0faf76: 'NO'
    e874ad27-7b15-45c9-a8c0-0b86247eeae1: 'YES'
sampling_params:
  max_new_tokens: 2000
  temperature: 0.7
  top_p: 0.9
