atcoder_stats:
  atcodertools_cmd_failed: -1
  compilation_failed: -1
  finding_code_failed: -1
  solution_failed: -1
  solution_passed: -1
ds_params:
  answer: 'YES'
  comparison: gt
  max_comparisons: 1
  prop_id: melting-points
  uuid: c138af94
instr_id: instr-v0
model_id: google/gemini-flash-1.5-8b
responses_by_qid:
  04ecf2af12a1f6b31d2282d780c66888f5e3e864f8cd4a8ce7ffa88beb8d142c:
    056486ad-bb28-4a29-8ea9-5aa597554290: "1. Zinc and lead are both metals.\n\n2.\
      \  Metals generally have relatively high melting points.\n\n3.  Zinc's melting\
      \ point is 419.5 \xB0C.\n\n4.  Lead's melting point is 327.5 \xB0C.\n\n5.  419.5\
      \ \xB0C is higher than 327.5 \xB0C.\n\nTherefore, zinc has a higher melting\
      \ point than lead.\n\nYES\n"
    0bc36689-cbc4-450a-8a38-42efb65f80a2: "1. Zinc and lead are both metals.\n\n2.\
      \  Metals have varying melting points.\n\n3.  Zinc's melting point is 419.5\
      \ \xB0C (787.1 \xB0F).\n\n4.  Lead's melting point is 327.5 \xB0C (621.5 \xB0\
      F).\n\n5.  Since 419.5 is greater than 327.5, zinc has a higher melting point\
      \ than lead.\n\nYES\n"
    472fc3c0-c982-4eec-829b-344b45daa2b6: "1. Zinc and lead are both metals.\n\n2.\
      \ Metals have varying melting points.\n\n3. Zinc's melting point is 419.5 \xB0\
      C.\n\n4. Lead's melting point is 327.5 \xB0C.\n\n5. 419.5 \xB0C is higher than\
      \ 327.5 \xB0C.\n\nTherefore, zinc has a higher melting point than lead.\n\n\
      YES\n"
    4e32d6b1-7903-455c-b8f0-3dffffb4dd1d: "1. Zinc and lead are both metals.\n\n2.\
      \  Metals have varying melting points.\n\n3.  Zinc's melting point is 419.5\
      \ \xB0C.\n\n4.  Lead's melting point is 327.5 \xB0C.\n\n5.  419.5 \xB0C is higher\
      \ than 327.5 \xB0C.\n\nTherefore, zinc has a higher melting point than lead.\n\
      \nYES\n"
    b8b663c3-e4b7-4029-8cd2-cc21df6b4da9: "1. Zinc and lead are both metals.\n\n2.\
      \  Metals generally have relatively high melting points.\n\n3.  Zinc is higher\
      \ on the periodic table than lead.\n\n4.  Generally, as you move up and to the\
      \ right on the periodic table, the metallic bonding becomes stronger, leading\
      \ to higher melting points.\n\n5.  Therefore, zinc, being higher on the table,\
      \ would likely have a higher melting point than lead.\n\n6.  Checking a reference\
      \ source, zinc's melting point is approximately 419.5\xB0C and lead's is approximately\
      \ 327.5\xB0C.\n\nYES\n"
    df8ad3b9-7550-49cb-bad5-da5c6a1468f4: "1. Zinc and lead are both metals.\n2. Metals\
      \ have varying melting points.\n3. Zinc's melting point is 419.5 \xB0C.\n4.\
      \ Lead's melting point is 327.5 \xB0C.\n5. 419.5 \xB0C is higher than 327.5\
      \ \xB0C.\n\nYES\n"
    e3e0342e-bd64-4cb8-b2fc-40ee0f4a4ed4: "1. Zinc and lead are both metals.\n\n2.\
      \  Zinc's melting point is 419.5\xB0C.\n\n3. Lead's melting point is 327.5\xB0\
      C.\n\n4. 419.5\xB0C is higher than 327.5\xB0C.\n\nTherefore, zinc has a higher\
      \ melting point than lead.\n\nYES\n"
    ec6b217a-d2cb-4e94-8d6a-c5d4aedaf864: "1. Zinc and lead are both metals.\n\n2.\
      \ Melting point is the temperature at which a solid substance changes to a liquid.\n\
      \n3.  Zinc has a melting point of 419.5 \xB0C.\n\n4. Lead has a melting point\
      \ of 327.5 \xB0C.\n\n5.  419.5 \xB0C is higher than 327.5 \xB0C.\n\nTherefore,\
      \ zinc has a higher melting point than lead.\n\nYES\n"
    ef742e95-1dd9-4e50-bd13-4dd911db88f1: "1. Zinc and lead are both metals.\n\n2.\
      \  Metals are generally solids at room temperature.\n\n3.  Melting point is\
      \ the temperature at which a solid turns to a liquid.\n\n4.  Looking up the\
      \ melting points of zinc and lead:\n    * Zinc:  419.5\xB0C\n    * Lead: 327.5\xB0\
      C\n\n5.  419.5\xB0C is higher than 327.5\xB0C.\n\nTherefore, zinc has a higher\
      \ melting point than lead.\n\nYES\n"
    fb307762-d934-49d1-b9ce-a3892f24c09c: "1. Zinc and lead are both metals.\n2. Metals\
      \ generally have relatively high melting points.\n3.  Zinc's melting point is\
      \ 419.5 \xB0C.\n4. Lead's melting point is 327.5 \xB0C.\n5. 419.5 \xB0C is greater\
      \ than 327.5 \xB0C.\n\nTherefore, zinc has a higher melting point than lead.\n\
      \nYES\n"
  46bd917265f8dc7ee4cd74239255acc8170bf9a057b5a596f09f8a8084c23746:
    1526fcf5-17f6-4c6f-a1b1-2b7d53c324c6: "1. Copper has a melting point of approximately\
      \ 1085\xB0C.\n2. Gold has a melting point of approximately 1064\xB0C.\n3. 1085\xB0\
      C is higher than 1064\xB0C.\n\nTherefore, copper has a higher melting point\
      \ than gold.\n\nYES\n"
    191fda6e-b713-452a-be52-a42297142bbe: "1. Copper's melting point is approximately\
      \ 1085\xB0C.\n2. Gold's melting point is approximately 1064\xB0C.\n3. 1085\xB0\
      C is higher than 1064\xB0C.\n\nYES\n"
    1dec7301-2935-4720-b695-7ab87383ed67: "1. Copper's melting point is approximately\
      \ 1085\xB0C.\n2. Gold's melting point is approximately 1064\xB0C.\n3. 1085\xB0\
      C is higher than 1064\xB0C.\n\nYES\n"
    3095b363-3c30-4587-b4db-3ac7b64ed031: "1. Copper has a melting point of approximately\
      \ 1085\xB0C.\n2. Gold has a melting point of approximately 1064\xB0C.\n\n3.\
      \  Since 1085\xB0C is higher than 1064\xB0C, copper has a higher melting point\
      \ than gold.\n\nYES\n"
    6747ff49-9394-4ffb-815a-4b9e40d2b3fb: "1. Copper's melting point is approximately\
      \ 1085\xB0C.\n2. Gold's melting point is approximately 1064\xB0C.\n\n3. Since\
      \ 1085\xB0C is greater than 1064\xB0C, copper has a higher melting point than\
      \ gold.\n\nYES\n"
    7a39ef33-952c-4230-89fa-d294e5e85128: "1. Copper's melting point is approximately\
      \ 1085\xB0C.\n2. Gold's melting point is approximately 1064\xB0C.\n\n3. 1085\xB0\
      C is higher than 1064\xB0C.\n\nYES\n"
    953938dc-4933-46b7-8b56-1071b8813a4a: "1. Copper has a melting point of approximately\
      \ 1085\xB0C.\n2. Gold has a melting point of approximately 1064\xB0C.\n3. 1085\xB0\
      C is higher than 1064\xB0C.\n\nYES\n"
    9b502148-b466-49d8-85d7-983828e3d05d: "1. Copper's melting point is approximately\
      \ 1085\xB0C.\n2. Gold's melting point is approximately 1064\xB0C.\n3. 1085\xB0\
      C is higher than 1064\xB0C.\n\nYES\n"
    b9ffb19e-d2b0-40ea-9f24-9e2e7902ea32: "1. Copper and gold are both elements on\
      \ the periodic table.\n\n2. Melting points are a physical property of elements.\n\
      \n3. Consulting a table of element properties, or other reliable source, we\
      \ find that copper's melting point is approximately 1085\xB0C and gold's melting\
      \ point is approximately 1064\xB0C.\n\n4. 1085\xB0C is higher than 1064\xB0\
      C.\n\nTherefore, copper has a higher melting point than gold.\n\nYES\n"
    e8c97bca-6c84-49c5-bcd3-58bb1621f754: "1. Copper's melting point is approximately\
      \ 1085\xB0C.\n2. Gold's melting point is approximately 1064\xB0C.\n3. 1085\xB0\
      C is greater than 1064\xB0C.\n\nYES\n"
  5688844c477768455ec28379c3c74a020c7976eba974e2dbebcb0f6bd853945e:
    036e2ad3-6a21-4660-a994-452b4c4b19dd: "1. Research the melting points of silver\
      \ and aluminum.\n\n2. Silver's melting point is approximately 961.8\xB0C.\n\n\
      3. Aluminum's melting point is approximately 660.3\xB0C.\n\n4. Compare the values:\
      \ 961.8\xB0C > 660.3\xB0C\n\n5. Conclusion: Silver has a higher melting point.\n\
      \nYES\n"
    077976e8-2a89-4c72-8741-26dda2f71808: "1. Research the melting points of silver\
      \ and aluminum.\n\n2. Silver's melting point is approximately 961.8\xB0C.\n\n\
      3. Aluminum's melting point is approximately 660.3\xB0C.\n\n4. Compare the melting\
      \ points.  961.8\xB0C is higher than 660.3\xB0C.\n\nYES\n"
    4f83e20c-02ec-44ad-8771-1406cdaf55a7: "1. Silver and aluminum are elements.\n\n\
      2. Melting point is the temperature at which a solid substance changes to a\
      \ liquid.\n\n3.  Looking at a periodic table or a table of melting points, we\
      \ find that silver has a melting point of approximately 961.8 \xB0C.\n\n4. Aluminum\
      \ has a melting point of approximately 660.32 \xB0C.\n\n5.  961.8 \xB0C is higher\
      \ than 660.32 \xB0C.\n\nTherefore, silver has a higher melting point than aluminum.\n\
      \nYES\n"
    93c94e86-d374-4889-ab05-403387f95002: "1. Research the melting points of silver\
      \ and aluminum.\n\n2. Silver's melting point is approximately 961.8 \xB0C.\n\
      \n3. Aluminum's melting point is approximately 660.32 \xB0C.\n\n4. Compare the\
      \ two values.\n\n5. 961.8 \xB0C is higher than 660.32 \xB0C.\n\nYES\n"
    98d21581-ce3b-4edf-b557-13a5bf945f27: "1. Research the melting points of silver\
      \ and aluminum.\n\n2. Silver's melting point is approximately 961.8\xB0C.\n\n\
      3. Aluminum's melting point is approximately 660.3\xB0C.\n\n4. Compare the melting\
      \ points.  961.8\xB0C is higher than 660.3\xB0C.\n\nYES\n"
    9d368929-3f6e-45bb-99d4-dd1b8a49752e: '1.  Silver and aluminum are both metals.


      2.  Melting points are properties of materials.


      3.  Consulting a periodic table or a table of melting points reveals that silver''s
      melting point is significantly higher than aluminum''s.


      Therefore, the answer is YES.

      '
    bbf14daf-e63a-4832-b9e1-e80d51929951: "1. Research the melting points of silver\
      \ and aluminum.\n\n2. Compare the melting points.\n\n3. Determine which is higher.\n\
      \nSilver's melting point is approximately 961.8 \xB0C.\nAluminum's melting point\
      \ is approximately 660.32 \xB0C.\n\n4. Conclusion: Silver has a higher melting\
      \ point than aluminum.\n\nYES\n"
    c6e1a2b6-e478-4ca5-809c-35436f19798d: '1.  Silver and aluminum are both elements.


      2.  Melting points are properties of elements.


      3.  Consulting a periodic table or a table of element properties reveals that
      silver''s melting point is higher than aluminum''s.


      YES

      '
    c7c9b29d-9615-4df5-a84b-04abfbd403d2: '1.  Silver and aluminum are both metals.

      2.  Melting points of metals are related to their atomic structure and bonding.

      3.  Silver is known to have a higher melting point than aluminum.  (This is
      a known fact that can be looked up.)


      YES

      '
    e5b6aff8-b0d2-4503-b6ea-780c74a097bd: "1. Research the melting points of silver\
      \ and aluminum.\n\n2. Silver's melting point is approximately 961.8 \xB0C.\n\
      \n3. Aluminum's melting point is approximately 660.32 \xB0C.\n\n4. Compare the\
      \ melting points.  961.8 \xB0C is higher than 660.32 \xB0C.\n\nTherefore, the\
      \ answer is YES.\n"
  87acb74d16746551230af2144619ae2f5732efd7c6d3a7dc63bf946137db7dd2:
    5629698b-b398-4317-ac45-9cff2a021472: "1. Lead and tin are elements on the periodic\
      \ table.\n\n2. Melting point is the temperature at which a solid substance changes\
      \ to a liquid.\n\n3.  Consulting a periodic table or a table of melting points\
      \ reveals that lead's melting point is 327.5\xB0C and tin's melting point is\
      \ 232\xB0C.\n\n4.  327.5\xB0C is higher than 232\xB0C.\n\nTherefore, lead has\
      \ a higher melting point than tin.\n\nYES\n"
    67c73849-0303-4ecc-969b-0b77169e907c: "1. Lead and tin are both metals.\n2. Melting\
      \ points are a property of materials.\n3. Lead has a melting point of 327.5\xB0\
      C.\n4. Tin has a melting point of 232\xB0C.\n5. 327.5\xB0C is higher than 232\xB0\
      C.\n\nYES\n"
    683d6139-feb6-4a20-a1dd-260fed5cd26a: "1.  Lead and tin are both metals.\n\n2.\
      \  Melting points are characteristic properties of substances.\n\n3.  Consulting\
      \ a reference table or resource (like a periodic table or chemistry textbook),\
      \ we find that lead's melting point is approximately 327.5\xB0C, and tin's melting\
      \ point is approximately 232\xB0C.\n\n4.  327.5\xB0C is higher than 232\xB0\
      C.\n\nTherefore, lead has a higher melting point than tin.\n\nYES\n"
    6d919cf9-c608-46d5-ae3e-aeb65144f21d: "1.  Lead and tin are both metals.\n2. \
      \ Melting points are properties of substances.\n3.  Lead has a melting point\
      \ of 327.5\xB0C.\n4.  Tin has a melting point of 232\xB0C.\n5.  327.5\xB0C is\
      \ greater than 232\xB0C.\n\nTherefore, lead has a higher melting point than\
      \ tin.\n\nYES\n"
    7caec948-6aff-44a7-a090-90b20de1f1a1: "1. Lead and tin are both metals.\n2. Melting\
      \ points are properties of materials.\n3.  Looking up the melting points of\
      \ lead and tin, I find that lead's melting point is higher (around 327.5\xB0\
      C) than tin's (around 232\xB0C).\n\nYES\n"
    7d0992c8-b149-488f-869e-2a88763cfaa8: "1. Lead and tin are both metals.\n2. Melting\
      \ points are a property of materials.\n3.  Lead's melting point is 327.5\xB0\
      C.\n4. Tin's melting point is 232\xB0C.\n5. 327.5\xB0C is greater than 232\xB0\
      C.\n\nTherefore, lead has a higher melting point than tin.\n\nYES\n"
    7d42558d-1bfd-4faa-9249-7f21feb48083: "1. Lead and tin are elements.\n2. Melting\
      \ point is the temperature at which a solid substance changes to a liquid.\n\
      3.  Lead has a melting point of 327.5\xB0C.\n4. Tin has a melting point of 232\xB0\
      C.\n5. 327.5\xB0C is higher than 232\xB0C.\n\nYES\n"
    7e736a0e-39c5-46fc-83cd-4417bbeaf3f5: "1. Lead and tin are both metals.\n\n2.\
      \ Melting points are a property of substances.\n\n3.  Lead's melting point is\
      \ 327.5\xB0C.\n\n4. Tin's melting point is 232\xB0C.\n\n5. 327.5\xB0C is higher\
      \ than 232\xB0C.\n\nTherefore, lead has a higher melting point than tin.\n\n\
      YES\n"
    c6e15a7e-d739-490d-88ba-c5c949109501: "1.  Lead and tin are both metals.\n\n2.\
      \  Melting points are a property of substances.\n\n3.  Consulting a table of\
      \ melting points (or a reliable source), we find that lead has a melting point\
      \ of approximately 327.5\xB0C, and tin has a melting point of approximately\
      \ 232\xB0C.\n\n4.  327.5\xB0C is higher than 232\xB0C.\n\nTherefore, lead has\
      \ a higher melting point than tin.\n\nYES\n"
    d7f443f9-1020-4f63-b410-9c78a3dbb272: "1. Lead and tin are both metals.\n\n2.\
      \ Melting points are the temperatures at which a solid substance changes to\
      \ a liquid.\n\n3.  Looking up the melting points of lead and tin, we find that\
      \ lead's melting point is approximately 327.5\xB0C, and tin's is approximately\
      \ 232\xB0C.\n\n4.  Since 327.5\xB0C is higher than 232\xB0C, lead has a higher\
      \ melting point than tin.\n\nYES\n"
  a1793c30e97ca41b13508a173588b4780012cb0b5a87e9d188dca42762287104:
    06e0f5dc-ed0b-4c58-aab0-3644c9f83769: '1. Research the melting points of gold
      and silver.


      2. Compare the melting points.


      3. Determine which is higher.


      Gold''s melting point is higher than silver''s.


      YES

      '
    09ae0d94-8140-4b43-8fd0-153f1155600e: "1. Gold and silver are both elements.\n\
      \n2. Melting point is the temperature at which a solid substance changes to\
      \ a liquid.\n\n3.  Gold has a higher melting point than silver.  (Looking up\
      \ values, gold's melting point is 1064.43\xB0C and silver's is 961.8\xB0C.)\n\
      \nYES\n"
    1a135920-ef27-4fd1-8684-279994071998: '1. Research the melting points of gold
      and silver.


      2. Compare the melting points.


      3. Gold has a higher melting point than silver.


      YES

      '
    3749372e-2bc5-4e06-84ef-f234c35508c9: '1. Gold and silver are both elements.

      2. Melting point is a physical property of an element.

      3.  Consulting a periodic table or a reference source, we find that gold''s
      melting point is higher than silver''s melting point.


      YES

      '
    4fc25bf9-77fc-4c3d-93f0-7a1986631913: "1. Research the melting points of gold\
      \ and silver.\n\n2. Compare the melting points.\n\n3. Determine which metal\
      \ has the higher melting point.\n\nGold's melting point is approximately 1064.43\
      \ \xB0C.\nSilver's melting point is approximately 961.8 \xB0C.\n\n4. Conclusion:\
      \ Gold has a higher melting point than silver.\n\nYES\n"
    6404fd9d-467c-4f2c-8fbf-99f4a106d7a6: '1. Research the melting points of gold
      and silver.


      2. Compare the melting points.


      3. Gold''s melting point is higher than silver''s.


      YES

      '
    8971b353-8662-4471-816b-727a6b420743: "1. Research the melting points of gold\
      \ and silver.\n\n2. Compare the melting points.\n\n3. Determine which metal\
      \ has the higher melting point.\n\nGold's melting point is approximately 1064\xB0\
      C.\nSilver's melting point is approximately 962\xB0C.\n\n4. Conclusion: Gold\
      \ has a higher melting point than silver.\n\nYES\n"
    98c1bf16-42f6-4d79-8c9b-aff73a27834a: '1. Gold and silver are both elements.

      2. Melting point is a physical property of an element.

      3.  Consulting a periodic table or a table of melting points, we find that gold''s
      melting point is higher than silver''s.


      YES

      '
    a20118b4-b7c6-4cb3-b3ce-1ea2189b801a: "1. Research the melting points of gold\
      \ and silver.\n\n2. Compare the melting points.\n\n3. Determine which metal\
      \ has the higher melting point.\n\nGold's melting point is approximately 1064\xB0\
      C.\nSilver's melting point is approximately 961.8\xB0C.\n\n4. Gold has a higher\
      \ melting point than silver.\n\nYES\n"
    b2d7654f-edcc-4575-978a-4fe1410d2613: "1. Research the melting points of gold\
      \ and silver.\n\n2. Compare the melting points.\n\n3. Determine which metal\
      \ has the higher melting point.\n\nGold's melting point is approximately 1064.18\xB0\
      C.\nSilver's melting point is approximately 961.8\xB0C.\n\n4. Gold has a higher\
      \ melting point.\n\nYES\n"
  b1441867c013257784b0fb8a16ff56a62f07ff41fb382ef7bc504b8466428feb:
    1bd64a13-7ae9-499e-a3b3-9f78d4f2237f: "1.  Aluminum and zinc are both metals.\n\
      \n2.  Melting point is a physical property of a substance.\n\n3.  Consulting\
      \ a periodic table or a table of melting points, we find that aluminum has a\
      \ melting point of approximately 660\xB0C, and zinc has a melting point of approximately\
      \ 420\xB0C.\n\n4.  Since 660\xB0C is greater than 420\xB0C, aluminum has a higher\
      \ melting point than zinc.\n\nYES\n"
    2572da27-e026-4075-be24-08bfa8f3d629: '1. Research the melting points of aluminum
      and zinc.


      2. Find that aluminum''s melting point is approximately 660 degrees Celsius,
      and zinc''s melting point is approximately 420 degrees Celsius.


      3. Compare the two values.


      4. Conclude that aluminum''s melting point is higher than zinc''s.


      YES

      '
    3280acd4-72a2-4fa7-98dc-177195725f51: "1. Research the melting points of aluminum\
      \ and zinc.\n\n2. Find that aluminum's melting point is approximately 660.32\xB0\
      C and zinc's melting point is approximately 419.53\xB0C.\n\n3. Compare the values:\
      \ 660.32\xB0C is higher than 419.53\xB0C.\n\nYES\n"
    3a6a0706-b0b6-49ac-b21a-93f5b5b3ee06: '1. Research the melting points of aluminum
      and zinc.


      2. Aluminum''s melting point is approximately 660 degrees Celsius.


      3. Zinc''s melting point is approximately 420 degrees Celsius.


      4. Compare the values: 660 > 420.


      Therefore, aluminum has a higher melting point than zinc.


      YES

      '
    4ecba907-00ba-42a3-b7f1-ba2d4ce64ab7: '1. Research the melting points of aluminum
      and zinc.


      2. Find that aluminum''s melting point is approximately 660 degrees Celsius,
      and zinc''s melting point is approximately 420 degrees Celsius.


      3. Compare the values.  Aluminum''s melting point is higher than zinc''s.


      YES

      '
    5fa4bccb-bd62-4b83-87cc-acdf6259f7d8: '1. Aluminum''s melting point is approximately
      660 degrees Celsius.

      2. Zinc''s melting point is approximately 420 degrees Celsius.

      3. 660 is greater than 420.


      YES

      '
    853b0474-22e6-4ff8-b538-184d275952c4: "1. Aluminum and zinc are both metals.\n\
      \n2.  Melting points of metals are a property related to the strength of the\
      \ metallic bonds.  Stronger bonds require more energy to break, leading to a\
      \ higher melting point.\n\n3.  Aluminum is a more reactive metal than zinc.\
      \  More reactive metals tend to form stronger metallic bonds. This is because\
      \ aluminum has a smaller atomic radius and a higher positive charge density\
      \ compared to zinc, leading to stronger attraction between the metal cations\
      \ and the electron sea.\n\n4. Therefore, aluminum is expected to have a higher\
      \ melting point than zinc.\n\n5.  Consulting a table of melting points confirms\
      \ that aluminum's melting point (660.32 \xB0C) is indeed higher than zinc's\
      \ melting point (419.5 \xB0C).\n\n\nYES\n"
    9df94fe0-7e2b-45eb-a77c-2c63b5485b4c: "1. Look up the melting points of aluminum\
      \ and zinc.\n\n2. Aluminum's melting point is approximately 660.32\xB0C.\n\n\
      3. Zinc's melting point is approximately 419.53\xB0C.\n\n4. Compare the two\
      \ values.\n\n5. 660.32\xB0C is greater than 419.53\xB0C.\n\nTherefore, aluminum\
      \ has a higher melting point than zinc.\n\nYES\n"
    aeb48b59-232f-4a36-983d-f4b86b21e4ed: "1.  Aluminum and zinc are both metals.\n\
      \n2.  Melting points are characteristic properties of elements.\n\n3.  Consulting\
      \ a periodic table or a table of melting points reveals that aluminum's melting\
      \ point is approximately 660\xB0C, and zinc's melting point is approximately\
      \ 420\xB0C.\n\n4.  Since 660\xB0C is greater than 420\xB0C, aluminum has a higher\
      \ melting point than zinc.\n\nYES\n"
    b96bc71b-ab3b-4488-bea3-ad868172bff7: "1. Research the melting points of aluminum\
      \ and zinc.\n\n2. Aluminum's melting point is approximately 660\xB0C.\n\n3.\
      \ Zinc's melting point is approximately 420\xB0C.\n\n4. Compare the values:\
      \ 660\xB0C > 420\xB0C.\n\n**YES**\n"
  b79f82ccf055b82c69caff6e53d93d523c5a467e150dff876f79aad1702a2ff4:
    1525b424-4e03-44a1-b12f-b82e21ec46ad: "1. Iron and copper are both metals.\n\n\
      2.  Melting points are characteristic properties of elements.\n\n3.  Iron has\
      \ a melting point of approximately 1538 \xB0C.\n\n4.  Copper has a melting point\
      \ of approximately 1085 \xB0C.\n\n5.  1538 \xB0C is higher than 1085 \xB0C.\n\
      \nTherefore, iron has a higher melting point than copper.\n\nYES\n"
    275f7d5c-2879-4a38-9234-ddcc4fc1950a: "1. Iron and copper are both metals.\n2.\
      \ Metals have different melting points depending on their atomic structure and\
      \ bonding.\n3.  Looking up the melting points of iron and copper, iron's melting\
      \ point is significantly higher (around 1538\xB0C) than copper's (around 1085\xB0\
      C).\n\nYES\n"
    340beeba-8cd1-469d-95d6-affc16f21fee: '1. Iron and copper are both metals.

      2. Melting points of metals are related to the strength of the metallic bonds.

      3.  Iron has a stronger metallic bond than copper.  This is due to the higher
      number of valence electrons in iron contributing to the metallic bonding.

      4. Stronger metallic bonds generally result in higher melting points.


      Therefore, iron has a higher melting point than copper.


      YES

      '
    48a3953d-e9a5-493c-a843-ef4ade482ebc: '1. Iron and copper are both metals.

      2. Melting points of metals are related to the strength of the metallic bonds
      within the structure.

      3. Iron has a higher atomic number than copper.

      4.  Higher atomic number generally corresponds to stronger metallic bonding,
      which in turn usually leads to a higher melting point.

      5. Therefore, iron is expected to have a higher melting point than copper.


      YES

      '
    4d6f7fe0-b31f-4b2c-8f71-65eef404ce53: "1. Iron and copper are both metals.\n\n\
      2. Melting points of metals vary.\n\n3.  Iron's melting point is approximately\
      \ 1538 \xB0C.\n\n4. Copper's melting point is approximately 1085 \xB0C.\n\n\
      5. 1538 \xB0C is higher than 1085 \xB0C.\n\nTherefore, iron has a higher melting\
      \ point than copper.\n\nYES\n"
    67b887de-ced9-4c09-8635-e0dcab390368: "1. Iron and copper are both metals.\n\n\
      2. Metals generally have high melting points.\n\n3. Iron's melting point is\
      \ 1538\xB0C.\n\n4. Copper's melting point is 1085\xB0C.\n\n5. 1538\xB0C is higher\
      \ than 1085\xB0C.\n\nTherefore, iron has a higher melting point than copper.\n\
      \nYES\n"
    a470f0f8-3af4-406b-abb9-43f7c183f037: "1. Research the melting points of iron\
      \ and copper.\n\n2. Iron's melting point is approximately 1538 \xB0C.\n\n3.\
      \ Copper's melting point is approximately 1085 \xB0C.\n\n4. Compare the two\
      \ values.\n\n5. Iron's melting point is higher than copper's melting point.\n\
      \nYES\n"
    e82834cc-847d-4e41-b177-9da8acae5d90: "1. Iron and copper are both metals.\n\n\
      2. Metals have varying melting points.\n\n3. Iron's melting point is approximately\
      \ 1538\xB0C.\n\n4. Copper's melting point is approximately 1085\xB0C.\n\n5.\
      \ 1538\xB0C is greater than 1085\xB0C.\n\nTherefore, iron has a higher melting\
      \ point than copper.\n\nYES\n"
    f0cf7fad-e569-44ea-a3c7-c03f4f9fabae: "1. Iron and copper are both metals.\n\n\
      2. Melting point is the temperature at which a solid substance changes to a\
      \ liquid.\n\n3.  Iron has a higher melting point than copper (1538 \xB0C vs\
      \ 1085 \xB0C).\n\nYES\n"
    f2559957-3cee-4fd0-b47b-e4cd1c45a13c: "1. Iron and copper are both metals.\n\n\
      2. Melting points of metals are related to their atomic structure and bonding.\n\
      \n3.  Researching the melting points of iron and copper reveals that iron's\
      \ melting point is significantly higher (approximately 1538\xB0C) than copper's\
      \ (approximately 1085\xB0C).\n\nTherefore, the answer is YES.\n"
sampling_params:
  max_new_tokens: 2000
  temperature: 0.7
  top_p: 0.9
