atcoder_stats:
  atcodertools_cmd_failed: -1
  compilation_failed: -1
  finding_code_failed: -1
  solution_failed: -1
  solution_passed: -1
ds_params:
  answer: 'YES'
  comparison: gt
  max_comparisons: 1
  prop_id: melting-points
  uuid: c138af94
fsp_by_resp_id: null
instr_id: instr-v0
model_id: Qwen/Qwen2.5-0.5B-Instruct
responses_by_qid:
  04ecf2af12a1f6b31d2282d780c66888f5e3e864f8cd4a8ce7ffa88beb8d142c:
    0e938ee8-24fc-4854-98b5-64f8b4f7185b: 'Yes. To determine if zinc has a higher
      melting point than lead, we need to consider the following factors:


      1. Atomic structure: Zinc (Zn) is an 8 valence metal atom with a high electronegativity.
      Lead (Pb) is also a 8 valence metal but has a lower electronegativity.


      2. Electron configuration: The electron configuration of both elements is similar,
      as they are both in Group 2A of the periodic table.


      3. Energy levels: In atoms, energy levels increase from left to right across
      the period and up through the group. Since zinc is more electronegative and
      thus has fewer electrons compared to lead, it will experience less effective
      screening from other atoms due to its larger atomic size.


      4. Ionization energy: Zinc loses one electron, while lead gains two electrons.
      This means zinc''s ionization energy is higher than that of lead, which increases
      its tendency to become molten at room temperature.


      5. Melting points: The melting points of metals typically decrease with increasing
      atomic number. While zinc and lead have the same number of protons (20), their
      different atomic numbers mean zinc has a slightly smaller mass. As a result,
      zinc''s lattice energy decreases, making it easier for it to crystallize out
      of liquid state, leading to a higher melting point compared to lead.


      Given these considerations, zinc likely has a higher melting point than lead
      due to its increased stability and ease of transformation into molten state
      under normal conditions.'
    1288a6bd-98bc-4d44-be5f-a1edd0b0b05c: 'NO'
    22707a80-0e6e-485b-9e6c-3a05a4ca3eba: 'YES'
    34acf595-a634-4274-85ea-304d39f76154: 'NO'
    50be0b1f-93d8-477b-8a75-d61927d005c7: Yes. Zn has a lower melting point than Pb
      (lead).
    69b0bbd2-a001-42a7-81d2-db4c00f5573b: NO.
    9425b26a-f348-4161-93e6-e6aadd381557: "Yes. Zinc has a lower melting point than\
      \ lead. Here's the step-by-step reasoning:\n1. Lead (Pb) is a metal at room\
      \ temperature, so it melts at about 327\xB0C (590\xB0F).\n2. Zinc is also a\
      \ metal but forms compounds with other elements that can affect its melting\
      \ point. Zinc typically melts between 106-134\xB0C (208-270\xB0F), which is\
      \ generally considered to be lower than lead's melting point.\n3. Additionally,\
      \ zinc reacts with oxygen in air, forming zinc oxide (ZnO), which lowers its\
      \ melting point further, often below 100\xB0C (212\xB0F) for most metals.\n\
      Therefore, based on these factors, we can conclude that zinc does indeed have\
      \ a lower melting point than lead."
    a6101654-d6cc-44ac-9c29-f7fe9288793c: "Yes, zinc has a higher melting point than\
      \ lead. This can be confirmed through the following steps:\n\n1. **Melting Points**:\
      \ \n   - Zinc: Melts at approximately 368\xB0C (675\xB0F).\n   - Lead: Melts\
      \ at about 270\xB0C (492\xB0F).\n\n2. **Temperature Change**:\n   - The difference\
      \ in temperature between these two substances when they melt should provide\
      \ an indication of their melting points. Since zinc melts at a much lower temperature\
      \ (368\xB0C), it will not melt as quickly.\n\nTherefore, based on this information,\
      \ we can conclude that zinc indeed has a higher melting point than lead."
    ad6d651e-e891-495f-90bb-e5bf30278ea4: 'YES'
    beff3211-d089-46bb-b7e2-9677fa4323c5: NO.
  46bd917265f8dc7ee4cd74239255acc8170bf9a057b5a596f09f8a8084c23746:
    0992c6a5-e766-4b92-8ee7-f3a45b28efb5: 'YES'
    2a2f77cc-4b42-4291-8655-18e0d8fc0f63: 'YES'
    3b62ce52-40bb-484a-b262-74fe93771813: 'NO'
    49b521cf-627b-4eef-a80f-4534861204b6: "YES. Copper has a much higher melting point\
      \ (approximately 1,083\xB0C at standard atmospheric pressure) compared to gold\
      \ (about 2,700\xB0C). The difference in melting points makes copper more resistant\
      \ to heat, which can be important in various applications such as jewelry, electronics,\
      \ and industrial processes."
    4f9f6417-4cd8-42ed-8928-bd79a0a72950: "Yes, copper has a higher melting point\
      \ than gold.\n\nTo understand this, let's consider the properties of both metals\
      \ in terms of temperature at equilibrium (melting point):\n\n1. **Gold**:\n\
      \   - Gold is generally considered to be the most malleable metal due to its\
      \ high crystalline structure and low melting point. This means it can be easily\
      \ shaped into various shapes but loses much of its form when heated.\n\n2. **Copper**:\n\
      \   - Copper has a more stable atomic structure compared to gold because of\
      \ the presence of a second shell electron. This stability makes copper less\
      \ reactive and allows it to retain its metallic properties better under heating\
      \ conditions.\n\n3. **Melting Points**:\n   - The melting points of these two\
      \ metals differ significantly:\n     - The melting point of gold is approximately\
      \ 1064\xB0C.\n     - The melting point of copper is approximately 1083\xB0C.\n\
      \nBased on these facts, we can conclude that copper has a higher melting point\
      \ than gold. Therefore, the answer is **YES**, copper does indeed have a higher\
      \ melting point than gold."
    693faae7-64f5-464e-9cbc-dbfb8d9ad70a: NO.
    6a1c0677-b8ca-4e0a-9407-fb1dcaeabb1b: "Yes. Copper has a higher melting point\
      \ than gold. To determine this, we need to understand the structure and properties\
      \ of each metal. Copper, also known as brass, has a melting point around 1532\
      \ degrees Celsius (2,976\xB0F). Gold, on the other hand, has a melting point\
      \ around 1064 degrees Celsius (1922\xB0F). Since 1532 degrees Celsius is greater\
      \ than 1064 degrees Celsius, it follows that copper has a higher melting point\
      \ than gold."
    a18cee60-9d15-4587-9f4a-e454aababebe: NO.
    a722b4c9-5db3-4547-b718-a05e08681434: NO.
    d07c14bc-1ab8-4558-b9b6-bec6c684cab6: 'Yes, copper has a higher melting point
      than gold.


      To explain this step-by-step:

      1. Copper is typically an element that exists naturally as the metal copper
      in its pure form.

      2. Gold, on the other hand, is a synthetic element formed through metallurgical
      processes and is not found naturally as pure metallic copper.

      3. The melting points of metals like copper and gold are different due to their
      atomic structure and bonding properties.

      4. Copper atoms have more electrons compared to gold atoms (each Cu atom has
      8 valence electrons while each Au atom has 7 valence electrons), which results
      in higher thermal stability and higher melting points for copper.

      5. In contrast, gold atoms have fewer electrons and thus lower melting points.


      Therefore, based on these factors, it can be concluded that copper has a higher
      melting point than gold.'
  5688844c477768455ec28379c3c74a020c7976eba974e2dbebcb0f6bd853945e:
    1114a805-72a0-4420-84bc-49e009e56f66: "YES. Aluminum has a lower melting point\
      \ than silver. To understand this, we need to consider the properties of each\
      \ metal:\n\n1. **Aluminum**:\n   - Aluminum is a silvery-white metal that is\
      \ highly ductile (malleable).\n   - It has a melting point around 660\xB0C (1,242\xB0\
      F), which is significantly lower than 1,083\xB0C (1,915\xB0F) for silver.\n\n\
      2. **Silver**:\n   - Silver is a metallic element known for its high melting\
      \ point (around 2,722\xB0C or 5,206\xB0F).\n   - The melting point of silver\
      \ varies slightly depending on purity but generally ranges from about 2,681\xB0\
      C (5,396\xB0F) to 2,716\xB0C (5,224\xB0F).\n\nGiven these facts, it's clear\
      \ that silver has a much higher melting point compared to aluminum. Therefore,\
      \ the answer to your question \"Does silver have a higher melting point than\
      \ aluminum? \" is YES."
    25bdb191-aac6-4edf-a442-7133d9fa26e5: 'YES'
    5677856f-2aae-4039-aab8-5a198db710be: 'YES'
    593f3592-d60a-42b3-96ee-5fe321ce7305: NO.
    7c2118e7-ae7c-42da-903f-17009e172e15: "Yes. Silver has a lower melting point than\
      \ aluminum. Silver typically melts at around 967\xB0C (1,542\xB0F), while aluminum\
      \ melts at approximately 301\xB0C (571\xB0F). Therefore, silver is generally\
      \ considered to have a higher melting point compared to aluminum."
    98537773-1fbb-4de1-bec6-9ea8a15bf68e: "YES.\n\nTo determine if silver has a higher\
      \ melting point than aluminum, we can consider the following points:\n\n1. **Melting\
      \ Point Calculation**: \n   - The melting point (or boiling point) of a metal\
      \ generally depends on its atomic structure, crystal form, and phase transition\
      \ behavior under different conditions like temperature and pressure.\n\n2. **Atomic\
      \ Structure**:\n   - Aluminum has an atomic structure that allows it to exist\
      \ in various forms such as solid, liquid, and gas. Each of these states has\
      \ a unique melting point depending on the alloy composition and thermal state\
      \ of the material.\n   - Silver, on the other hand, typically exists in a solid-state\
      \ alloy form, which can be more stable at lower temperatures compared to pure\
      \ metallic aluminum.\n\n3. **Phase Transition**:\n   - In most cases, when metals\
      \ melt, they transition from their solid state to a molten phase, often referred\
      \ to as \"melting.\" However, for very low temperatures, some metals may transition\
      \ to a solid state before becoming liquid. This could happen due to crystallization,\
      \ phase transformations, or changes in the interatomic bonds within the metal.\n\
      \n4. **Aluminum's Phase Behavior**:\n   - Aluminum typically exists in the form\
      \ of aluminum oxide (Al\u2082O\u2083) at room temperature, but this can change\
      \ significantly when exposed to heat or pressure. Its melting point is usually\
      \ around 660\xB0C, making it less thermodynamically favorable compared to alloys\
      \ containing aluminum.\n\n5. **Silver's Phase Behavior**:\n   - When silver\
      \ is dissolved in water, it transforms into a liquid state. In the presence\
      \ of oxygen, silver will also oxidize, forming silver oxide (Ag\u2082O). This\
      \ process is not thermodynamically favorable because silver does not readily\
      \ react with oxygen at normal temperatures.\n\nGiven these factors, while there\
      \ might be some minor differences in how each metal melts under specific conditions,\
      \ especially in high-temperature environments, it is highly unlikely that silver\
      \ would exhibit a melting point that is notably higher than aluminum in practical\
      \ applications. Therefore, based on the information available, the melting point\
      \ of silver cannot exceed that of aluminum."
    9b08e7bd-c5ea-4b4f-b01c-e49630d34d8c: 'YES'
    cdddf6ac-7a9b-4bbc-bd4d-ee394cea5ee6: YES. Silver has a lower melting point than
      aluminum due to its chemical composition and structure. Silver typically forms
      an alloy with other metals (such as copper) and is less dense than pure silver.
      Aluminum, on the other hand, is more dense and forms more easily in solid form.
      Therefore, when heated to the same temperature, silver will melt faster and
      reach a higher melting point compared to aluminum.
    d2c285ae-bf67-415b-a5c2-efa8494bff1f: Yes. Silver has a much higher melting point
      than aluminum due to its structure, which allows it to crystallize in the solid
      state at temperatures well above those of liquid aluminum. The chemical composition
      of silver (Ag) includes silver ions (Ag+) and silver atoms, while aluminum (Al)
      typically forms a silicate lattice where aluminum atoms are surrounded by oxygen
      atoms and silver ions. Aluminum's lattice structure allows for higher thermal
      stability compared to silver's, leading to its higher melting point.
    feadd379-258b-4c54-aa05-caa84eb19cda: NO.
  87acb74d16746551230af2144619ae2f5732efd7c6d3a7dc63bf946137db7dd2:
    01a82130-3b39-4bdf-be11-3932355c2a18: "YES. The melting points of lead (Pb) and\
      \ tin (Sn) can be compared to determine which has a higher melting point.\n\n\
      1. **Lead (Pb)**: Lead has a melting point of approximately 328\xB0C at standard\
      \ atmospheric pressure (around 0\xB0C on the Fahrenheit scale).\n   \n2. **Tin\
      \ (Sn)**: Tin has a melting point around 296\xB0C at standard atmospheric pressure.\n\
      \nComparing these values:\n- Lead's melting point is significantly lower than\
      \ tin's.\n  \nTherefore, based on this comparison, it is clear that lead has\
      \ a higher melting point than tin."
    05defa1a-9ec3-4b9e-8277-763afed7f867: 'YES'
    49e04466-5556-4427-bdcd-af9dc5faa072: YES. Lead has a higher melting point than
      tin because the atomic structure and bonding between atoms in these two elements
      differ significantly. Lead (Pb) has an atomic number of 82, while tin (Sn) has
      an atomic number of 50. This difference in atomic numbers leads to different
      bond lengths and forces within the metal lattice. In general, metals tend to
      be more stable when their atoms have lower energy levels due to the presence
      of shared electrons, which results in stronger bonds and higher melting points
      compared to non-metals like lead. Therefore, since lead's atomic number is higher,
      it will experience greater strain from thermal expansion and contraction under
      pressure, leading to a higher melting point compared to tin.
    5a2b1ccb-6b3b-4374-86f0-60737c4cb242: 'NO'
    5ded26ff-54c9-40c6-9b41-c32de6a9e8d3: 'NO'
    6251b577-3bd7-49ec-a47d-99ea08b43d9a: 'YES'
    646f37e0-d235-4213-b659-fb5514c0c466: YES. Lead has a lower melting point than
      tin due to its atomic structure and chemical properties. Lead atoms have more
      electron shells compared to tin atoms, which allows them to lose electrons easily
      during the transition from solid to liquid state. This loss of electrons creates
      more energy in the form of heat, causing the material to melt at a lower temperature
      than tin does.
    6d166805-ca5e-4b8a-8966-b70592c75e80: 'NO'
    97c9660f-4bbb-4e2c-ac6e-2f745670516d: 'NO'
    be4a1ac5-0130-46fb-b320-1ac15b295e89: YES. Lead has a higher melting point than
      tin because the atomic structure and physical properties of these metals differ
      significantly. Lead (Pb) has a lower electron affinity and more stable arrangements
      of electrons in its outer shell compared to tin (Sn). This makes it less likely
      to break down into smaller molecules during melting and boiling, leading to
      a higher melting point for lead. In contrast, tin tends to undergo chemical
      reactions that can cause it to break down into smaller molecules, resulting
      in a lower melting point.
  a1793c30e97ca41b13508a173588b4780012cb0b5a87e9d188dca42762287104:
    026bc5ae-0778-45d0-a59e-e9587012b8d7: 'NO'
    3950a910-3fa6-4a21-b54c-1bbe8e34a33a: "YES. Gold has a much higher melting point\
      \ than silver, with an average melting point of about 1064\xB0C (1832\xB0F)\
      \ compared to 975\xB0C (1691\xB0F). This difference in melting points makes\
      \ gold more stable and resistant to thermal expansion than silver, which can\
      \ expand significantly under heat."
    6533210c-afab-4665-b3df-1b9120cdef06: 'NO'
    78292e14-42a8-4563-8535-7eb24623186a: "Yes. Gold has a significantly higher melting\
      \ point than silver. To understand this, let's break down the process step by\
      \ step.\n\n1. **Definition of Melting Point**: The melting point is the temperature\
      \ at which a solid can be transformed into a liquid without passing through\
      \ a vapor phase.\n2. **Gold vs Silver Melting Points**:\n   - **Silver (Ag)**:\
      \ At room temperature, its melting point is approximately 967\xB0C (1,504\xB0\
      F).\n   - **Gold (Au)**: At room temperature, its melting point is around 1,083\xB0\
      C (1,915\xB0F).\n\n3. **Temperature Difference**: The difference in their melting\
      \ points is significant because it directly relates to their atomic structure\
      \ and the energy required to break bonds between atoms.\n\n4. **Energy Breakdown**:\n\
      \   - **Silver (Ag)**: Breaking ionic bonds requires more energy than breaking\
      \ covalent bonds.\n   - **Gold (Au)**: Covalent bonds are weaker compared to\
      \ ionic bonds, making them easier to break under the same conditions.\n\n5.\
      \ **Atomic Structure**: Both metals share similar atomic structures but differ\
      \ slightly due to the presence of electrons.\n   - **Silver (Ag)**: It is typically\
      \ an atom with 4 valence electrons.\n   - **Gold (Au)**: It is often a neutral\
      \ atom, having 4 valence electrons as well.\n\n6. **Energy Required for Bond\
      \ Breakage**: For both silver and gold, the energy needed to break ionic bonds\
      \ is higher than that required for covalent bonds.\n\nGiven these factors, it\
      \ can be concluded that while there might be some slight differences in the\
      \ exact melting point values, both silver and gold will have a much higher melting\
      \ point when compared to each other. This higher melting point corresponds to\
      \ the stronger intermolecular forces between the atoms of the two elements."
    cfeefa21-aba1-4118-9421-2b0889db016e: "YES. Gold has a much higher melting point\
      \ than silver. The average atomic mass of gold (Au) is approximately 196.97\
      \ g/mol, while the average atomic mass of silver (Ag) is approximately 107.87\
      \ g/mol. The melting points of these two elements are as follows:\n- Silver:\
      \ 3273\xB0C at standard atmospheric pressure (around -183\xB0F)\n- Gold: 4615\xB0\
      C\n\nSilver has a higher melting point than gold. This difference in boiling\
      \ point is due to the presence of interatomic bonds between atoms in metals.\
      \ In silver, there are more free electrons compared to an atom-centered structure\
      \ like that of gold. As a result, the electrons in silver have more freedom\
      \ to move around, which increases their kinetic energy and thus their ability\
      \ to overcome the attractive forces between them. This increased mobility results\
      \ in a higher melting point for silver.\n\nIn contrast, gold has fewer free\
      \ electrons compared to its metal-like structure, leading to lower melting points.\
      \ The overall stability and lack of electron delocalization make it easier for\
      \ the electrons to be attracted to each other and arrange themselves into a\
      \ stable lattice structure, contributing to its lower melting point."
    d4790c8c-26e9-40d4-ad7e-520e2ef78f04: 'YES'
    da24eb64-9fd9-44f8-abbf-462924232fd8: 'YES'
    eb51b6bc-af41-4b75-b7ef-6c18a033b43e: NO.
    f19d77b1-3628-437d-97fa-003675042af3: 'NO'
    f310d0ff-088a-4e45-b3e8-cce5c2d23d61: "NO. Gold has a much lower melting point\
      \ than silver, which means that it does not melt at the same temperature as\
      \ silver. The melting points of gold (758\xB0C) and silver (1064\xB0C) are significantly\
      \ different."
  b1441867c013257784b0fb8a16ff56a62f07ff41fb382ef7bc504b8466428feb:
    09fb7fa3-cbbc-430a-885a-4ec5bcc07291: YES. Aluminum has a lower melting point
      than zinc due to the difference in their atomic structure and how they behave
      under heat. Alloys of tin and lead, which contain zinc as a trace element, typically
      have higher melting points than pure zinc. Aluminum, on the other hand, is more
      reactive and melts at a lower temperature when exposed to high temperatures
      compared to pure zinc. Therefore, aluminum does indeed have a higher melting
      point than zinc.
    09fdc304-cd6e-4ab8-b59d-2e97c7b9c31e: 'YES'
    2176def9-ef7f-4666-9166-2c672f28a8f6: 'YES'
    25e3c3d8-ef6e-47b5-9201-cff6df2fe1c0: 'NO.


      To determine whether aluminum has a higher melting point than zinc, we need
      to consider the following factors:

      1. Atomic structure: Aluminum (Al) has a more stable electron configuration
      compared to zinc (Zn), which consists mainly of zinc ions (Zn2+).

      2. Ionic bonding: Al3+ ions in aluminum oxide (Al2O3) form ionic bonds, while
      Zn2+ ions in zinc chloride (ZnCl2) do not form such bonds.

      3. Physical properties: The difference in melting points can be attributed to
      differences in physical properties between aluminum and zinc.

      4. Atomic radii: Zinc has a smaller atomic radius than aluminum, which might
      affect its ability to overcome electrostatic forces that could prevent it from
      forming an ionic bond.


      Given these factors, it is reasonable to conclude that aluminum would generally
      have a lower melting point than zinc due to its different electronic configurations
      and physical properties. Therefore, based on this analysis, aluminum does not
      have a higher melting point than zinc.'
    40fa1191-8d13-4679-9fa4-f516a3c261cf: "YES. Aluminum has a higher melting point\
      \ than zinc. To determine this, we need to understand that the melting points\
      \ of metals typically increase as their atomic numbers increase. The atomic\
      \ number of aluminum (Al) is 13, while the atomic number of zinc (Zn) is 30.\n\
      \nSince the atomic number increases from aluminum to zinc, the melting points\
      \ will also increase in a linear fashion:\n- Aluminum's melting point: ~649\xB0\
      C\n- Zinc's melting point: ~720\xB0C\n\nTherefore, aluminum indeed has a higher\
      \ melting point than zinc."
    551b0b8e-ec1c-44b8-8cf2-d442e575faf4: YES. Aluminum has a higher melting point
      than zinc because aluminum is a metal while zinc is an alloy. The melting points
      of metals and alloys differ based on the chemical composition and structure
      of their atoms. Alloys like brass (zinc-aluminum alloy) typically have a lower
      melting point compared to pure metals.
    8da9e395-2546-42e5-acbb-4007412fe2b5: "Yes, aluminum has a higher melting point\
      \ than zinc. To determine this, we can follow these steps:\n1. Determine the\
      \ melting points of both metals: \n   - Aluminum's melting point is approximately\
      \ 660\xB0C (1,293\xB0F)\n   - Zinc's melting point is about 708\xB0C (1202\xB0\
      F)\n2. Compare the melting points:\n   - Aluminum > Zinc\nTherefore, yes, aluminum\
      \ does have a higher melting point than zinc.\n\nThis conclusion follows from\
      \ the standard melting point values for each metal."
    97558f3c-2c4c-4308-994f-e3c9c41bd699: "NO. Aluminum has a lower melting point\
      \ than zinc. To determine this, we need to understand the general behavior of\
      \ metals at their respective melting points.\n\n1. **Aluminum**: Aluminum melts\
      \ at 647\xB0C (1205\xB0F) in its solid state. This means it does not melt below\
      \ 647\xB0C.\n   \n2. **Zinc**: Zinc melts at 960\xB0C (1,732\xB0F). It also\
      \ does not melt below this temperature.\n\nSince both metals do not melt below\
      \ their respective melting points, they can be placed together in a container\
      \ without any immediate danger of boiling over or cracking. However, if you\
      \ place them side by side, one will likely crack before the other melts completely.\n\
      \nTherefore, aluminum does not have a higher melting point than zinc."
    dea38cdd-8314-40c4-829c-a741be193036: 'YES'
    e23b376e-b0a3-48e5-857e-69013c3f39e5: 'YES'
  b79f82ccf055b82c69caff6e53d93d523c5a467e150dff876f79aad1702a2ff4:
    020d9463-d3e7-42a3-9b88-3ec5357409f4: 'YES'
    0cce7b82-b6b1-4a27-9914-06ee2b790211: NO.
    3bbb1914-35f5-4399-8710-cfa91758271b: "YES. Iron has a much higher melting point\
      \ than copper. The melting points for iron (1538\xB0C) and copper (2740\xB0\
      C) are significantly different."
    67f40444-f96d-46a3-a376-fd309885c66d: "NO. Iron has a lower melting point than\
      \ copper because the boiling point of water (100\xB0C at standard atmospheric\
      \ pressure) is 356\xB0C for pure iron. Copper's melting point is around 927\xB0\
      C, which makes it much hotter than iron's. Therefore, iron cannot have a higher\
      \ melting point than copper."
    70d5b986-7c58-4ac4-b072-9e47b013f8cc: "Yes, iron has a higher melting point than\
      \ copper. Iron typically has a melting point around 1, 507\xB0C (2, 498\xB0\
      F), while copper's melting point is approximately 1, 083\xB0C (1, 987\xB0F).\
      \ This difference in temperature makes iron significantly more stable at room\
      \ temperature compared to copper."
    7a27c7c3-5a7d-4a49-8668-949c376ae08b: NO.
    95b2a475-e4a0-430f-85f2-7c1796fc59bf: NO.
    a3a9e3b9-3a41-42b8-888c-e0ac18043158: 'YES'
    aa02a49a-8bcd-4a7b-8e4b-8fd266db891b: 'YES'
    f88dab6a-9009-4187-9594-4245a3918039: NO.
sampling_params:
  max_new_tokens: 2000
  temperature: 0.7
  top_p: 0.9
