atcoder_stats:
  atcodertools_cmd_failed: -1
  compilation_failed: -1
  finding_code_failed: -1
  solution_failed: -1
  solution_passed: -1
ds_params:
  answer: 'NO'
  comparison: gt
  max_comparisons: 1
  prop_id: melting-points
  uuid: 3db213fb
instr_id: instr-v0
model_id: google/gemma-2-27b-it
responses_by_qid:
  52858026b29a6a660cb7db9907da2469d8237449f3ea5b7ebc65539c268faba0:
    140d5e3f-c675-46b7-a610-68ca5203a68b: "Here's the step-by-step reasoning:\n\n\
      1. **Melting point definition:** The melting point is the temperature at which\
      \ a solid substance transitions to a liquid state.\n\n2. **Gold's melting point:**\
      \ Gold has a melting point of 1064 degrees Celsius.\n\n3. **Copper's melting\
      \ point:** Copper has a melting point of 1085 degrees Celsius.\n\n4. **Comparison:**\
      \ 1085 (copper) is higher than 1064 (gold).\n\n\n**Answer: NO** \n\n"
    310af6f4-70a5-449d-b27d-12b4a77e2fb5: "Here's the step-by-step reasoning:\n\n\
      1. **We need to know the melting points of both gold and copper.**\n2. **The\
      \ melting point of gold is 1064 degrees Celsius.**\n3. **The melting point of\
      \ copper is 1085 degrees Celsius.**\n4. **1085 is higher than 1064.**\n\n\n\
      **Answer: NO** \n\n"
    4d00ac79-0a5a-4536-911c-0f34b8ab3d71: "Here's the step-by-step reasoning:\n\n\
      1. **What is a melting point?** It's the temperature at which a solid turns\
      \ into a liquid.\n2. **Do different materials have different melting points?**\
      \ Yes, they do.\n3. **What are the melting points of gold and copper?** Gold\
      \ has a melting point of 1064\xB0C, and copper has a melting point of 1085\xB0\
      C.\n4. **Is the melting point of gold higher than the melting point of copper?**\
      \ No.\n\n**Answer:** NO\n"
    8e65253d-4e1c-412a-9e40-e4b18dae3fb9: "Here's the step-by-step reasoning:\n\n\
      1. **Melting point definition:** The melting point is the temperature at which\
      \ a solid substance turns into a liquid.\n2. **Comparing materials:** We need\
      \ to compare the melting points of gold and copper.\n3. **Known facts:** Gold\
      \ has a melting point of 1064 \xB0C (1947 \xB0F), while copper has a melting\
      \ point of 1085 \xB0C (1985 \xB0F). \n\n**Answer:** NO \n\n\n\n"
    8f669fd4-e9ad-4fd6-9d29-a8b792ab65f3: "Here's the step-by-step reasoning:\n\n\
      1. **Melting point definition:** The melting point is the temperature at which\
      \ a solid turns into a liquid.\n2. **Comparing metals:** We need to know the\
      \ melting points of gold and copper.\n3. **Look up values:**  The melting point\
      \ of gold is 1064 \xB0C (1947 \xB0F). The melting point of copper is 1085 \xB0\
      C (1985 \xB0F).\n\n4. **Comparison:** Copper's melting point is higher than\
      \ gold's melting point.\n\n\n**Answer:** NO\n"
    981b9083-7f31-425d-8a2c-386e624bc72c: "Here's the step-by-step reasoning:\n\n\
      1. **Melting point definition:** The melting point is the temperature at which\
      \ a solid substance transitions to a liquid state.\n2. **Gold's melting point:**\
      \ Gold has a melting point of 1064 degrees Celsius.\n3. **Copper's melting point:**\
      \ Copper has a melting point of 1085 degrees Celsius.\n4. **Comparison:**  1085\
      \ degrees Celsius (copper) is higher than 1064 degrees Celsius (gold).\n\n\n\
      **Answer: NO** \n\n"
    b91cc1be-9588-436e-aaeb-a4e98b83d09a: "Here's the step-by-step reasoning:\n\n\
      1. **What is a melting point?**  The melting point is the temperature at which\
      \ a solid turns into a liquid.\n2. **Do different materials have different melting\
      \ points?** Yes, different materials have different melting points.\n3. **What\
      \ are the melting points of gold and copper?** Gold has a melting point of 1064\
      \ degrees Celsius. Copper has a melting point of 1085 degrees Celsius.\n4. **Is\
      \ the melting point of gold higher than the melting point of copper?** No.\n\
      \n\n**Answer: NO** \n\n"
    d623351e-8627-4640-91f1-defc36704b5f: 'Here''s the step-by-step reasoning:


      1. **What is a melting point?** It''s the temperature at which a solid turns
      into a liquid.

      2. **Do different materials have different melting points?** Yes, they do.

      3. **What are the melting points of gold and copper?** Gold has a melting point
      of 1064 degrees Celsius, and copper has a melting point of 1085 degrees Celsius.

      4. **Is the melting point of gold higher than the melting point of copper?**
      No.



      **Answer:** NO

      '
    e256233f-9af7-4de4-9f60-d03366f0a2d7: "Here's the step-by-step reasoning:\n\n\
      1. **What is a melting point?**  The melting point is the temperature at which\
      \ a solid substance turns into a liquid.\n\n2. **Do different materials have\
      \ different melting points?** Yes, different materials have different melting\
      \ points.\n\n3. **What are the melting points of gold and copper?**  Gold has\
      \ a melting point of 1064 degrees Celsius. Copper has a melting point of 1085\
      \ degrees Celsius.\n\n4. **Is the melting point of gold higher than the melting\
      \ point of copper?** No.\n\n\n**Therefore, the answer is NO.** \n\n"
    f7e03836-40c0-467f-840c-265501aa23a9: "Here's the step-by-step reasoning:\n\n\
      1. **Melting point is a characteristic property of materials.**  Different materials\
      \ melt at different temperatures.\n2. **Gold is known for being a very hard\
      \ to melt metal.** It's often used in jewelry and electronics because of its\
      \ durability.\n3. **Copper is also a metal, but it's softer and more malleable\
      \ than gold.**\n\n4. **Based on these properties, it's likely that gold has\
      \ a higher melting point than copper.**\n\n**Answer:** YES \n\n\n\n"
  77243713b7726192fac54e13dd136ea0a0d29c420a08bb13f96264867e009a35:
    00815ce8-2c47-43b5-9401-058caa2166f4: "Here's the step-by-step reasoning:\n\n\
      1. **Find the melting point of zinc:** The melting point of zinc is 419.5 \xB0\
      C.\n2. **Find the melting point of aluminum:** The melting point of aluminum\
      \ is 660.3 \xB0C.\n3. **Compare the melting points:** 660.3 \xB0C (aluminum)\
      \ is higher than 419.5 \xB0C (zinc).\n\n\n**Answer: NO** \n\n"
    33974ab1-d659-46d5-9c89-e3c2e173facd: "Here's the step-by-step reasoning:\n\n\
      1. **Find the melting point of zinc:** The melting point of zinc is 419.5 \xB0\
      C.\n2. **Find the melting point of aluminum:** The melting point of aluminum\
      \ is 660.3 \xB0C.\n3. **Compare the melting points:** 660.3 \xB0C (aluminum)\
      \ is higher than 419.5 \xB0C (zinc).\n\n\n**Answer:** NO\n"
    484d7270-d1a7-41ef-b37f-8f1efebeebe3: "Here's the step-by-step reasoning:\n\n\
      1. **We need to know the melting points of both metals.** \n2. **The melting\
      \ point of zinc is 419.5 \xB0C.**\n3. **The melting point of aluminum is 660.3\
      \ \xB0C.**\n4. **660.3 \xB0C is higher than 419.5 \xB0C.**\n\n\n**Answer:**\
      \ NO \n\n"
    68ce1f63-bd6b-4121-a867-3b1f2104b0dc: "Here's the step-by-step reasoning:\n\n\
      1. **Find the melting point of zinc:** The melting point of zinc is 419.5 \xB0\
      C.\n2. **Find the melting point of aluminum:** The melting point of aluminum\
      \ is 660.3 \xB0C.\n3. **Compare the melting points:** 660.3 \xB0C (aluminum)\
      \ is higher than 419.5 \xB0C (zinc).\n\n\n**Answer: NO** \n\n"
    781fb038-f498-4d16-bfac-e1e12739e192: "Here's the step-by-step reasoning:\n\n\
      1. **Find the melting point of zinc:**  The melting point of zinc is 419.5 \xB0\
      C.\n2. **Find the melting point of aluminum:** The melting point of aluminum\
      \ is 660.3 \xB0C.\n3. **Compare the melting points:** 660.3 \xB0C (aluminum)\
      \ is higher than 419.5 \xB0C (zinc).\n\n\n**Answer: NO** \n\n"
    88d3bddb-4c60-44ad-be3c-775a538ee32f: "Here's the step-by-step reasoning:\n\n\
      1. **Recall the general trend of melting points in the periodic table:**  Melting\
      \ points tend to increase as you move across a period (from left to right) and\
      \ decrease as you move down a group.\n\n2. **Locate zinc (Zn) and aluminum (Al)\
      \ on the periodic table:** Zinc is in group 12 and period 4, while aluminum\
      \ is in group 13 and period 3.\n\n3. **Compare their positions:** Zinc is to\
      \ the right of aluminum in the same period.\n\n4. **Apply the trend:** Since\
      \ zinc is to the right of aluminum in the same period, it should have a higher\
      \ melting point.\n\n\n**Answer: YES** \n\n"
    9a0d624d-4e8a-46df-956a-fb07d4a2575c: "Here's the step-by-step reasoning:\n\n\
      1. **Recall the general properties of metals:** Metals tend to have relatively\
      \ high melting points.\n2. **Consider zinc and aluminum:** Both zinc and aluminum\
      \ are metals.\n3. **Compare their melting points:** Zinc has a melting point\
      \ of 419.5 \xB0C, while aluminum has a melting point of 660.3 \xB0C.\n\n**Answer:**\
      \ NO \n\n\n\n"
    abeba61e-14ab-49e2-bba1-25a22c493126: "Here's the step-by-step reasoning:\n\n\
      1. **Find the melting point of zinc:** The melting point of zinc is 419.5 \xB0\
      C.\n2. **Find the melting point of aluminum:** The melting point of aluminum\
      \ is 660.32 \xB0C.\n3. **Compare the melting points:**  Aluminum's melting point\
      \ is higher than zinc's melting point.\n\n\n**Answer:** NO\n"
    c0d0da5d-e76a-4f7d-8d39-fa5ae08342d6: "Here's the step-by-step reasoning:\n\n\
      1. **Melting point definition:** The melting point is the temperature at which\
      \ a solid substance transitions into a liquid state.\n\n2. **Comparing zinc\
      \ and aluminum:** We need to know the melting points of both zinc and aluminum.\n\
      \n3. **Looking up melting points:**\n    * Zinc melting point: 419.5 \xB0C (787.1\
      \ \xB0F)\n    * Aluminum melting point: 660.3 \xB0C (1220.5 \xB0F)\n\n4. **Comparing\
      \ the values:** Aluminum's melting point (660.3 \xB0C) is higher than zinc's\
      \ melting point (419.5 \xB0C).\n\n\n**Answer:** NO\n"
    c60f7d36-e7cf-4b9f-98d2-68b16cd8df9f: "Here's the step-by-step reasoning:\n\n\
      1. **Find the melting point of zinc:** The melting point of zinc is 419.5 \xB0\
      C.\n2. **Find the melting point of aluminum:** The melting point of aluminum\
      \ is 660.3 \xB0C.\n3. **Compare the melting points:** 660.3 \xB0C (aluminum)\
      \ is higher than 419.5 \xB0C (zinc).\n\n**Answer: NO** \n\n\nZinc does not have\
      \ a higher melting point than aluminum.\n"
  a6d73221c8137b4b342fb833d7d29460e8a175b78fe1e035d24ef9c2045c22b9:
    04ac7afc-2b8e-4ec2-8d4d-bf79864ba785: "Here's the step-by-step reasoning:\n\n\
      1. **Recall melting points:** We need to know the melting points of tin and\
      \ lead.\n2. **Look up melting points:**\n    * Tin (Sn) has a melting point\
      \ of 231.93 \xB0C (449.47 \xB0F).\n    * Lead (Pb) has a melting point of 327.5\
      \ \xB0C (621.5 \xB0F).\n\n3. **Compare:** Lead's melting point is higher than\
      \ tin's melting point.\n\n**Answer:** NO\n"
    0ca591af-2811-4c6e-bbe6-ed16c5dd6670: "Here's the step-by-step reasoning:\n\n\
      1. **Recall the periodic table:** Tin (Sn) and Lead (Pb) are both metals found\
      \ in the same general area of the periodic table.\n2. **Consider periodic trends:**\
      \  Melting points tend to increase as you move across a period (from left to\
      \ right) on the periodic table.\n3. **Compare positions:** Tin is to the left\
      \ of Lead on the periodic table.\n\n4. **Conclusion:** Based on periodic trends,\
      \ tin should have a lower melting point than lead.\n\n\n**Answer: NO** \n\n"
    477a26fd-e4ad-43cf-8339-ad7548cba514: "Here's the step-by-step reasoning:\n\n\
      1. **Melting point is a property of metals.**  Different metals have different\
      \ melting points.\n2. **We need to compare the melting points of tin and lead.**\n\
      3. **The melting point of tin is 231.93 \xB0C (449.47 \xB0F).**\n4. **The melting\
      \ point of lead is 327.46 \xB0C (621.43 \xB0F).**\n5. **327.46 \xB0C is higher\
      \ than 231.93 \xB0C.**\n\n\n**Therefore, the answer is NO.** Tin does not have\
      \ a higher melting point than lead. \n\n"
    5e80066c-9f59-4338-8c26-1fcf73368758: "Here's the step-by-step reasoning:\n\n\
      1. **Recall the general trend of melting points in metals:**  Melting points\
      \ tend to increase as you move across a period (left to right) on the periodic\
      \ table. This is due to increasing atomic number and stronger metallic bonding.\n\
      \n2. **Locate tin (Sn) and lead (Pb) on the periodic table:** Tin is to the\
      \ left of lead.\n\n3. **Apply the trend:** Since tin is to the left of lead,\
      \ it likely has a lower melting point.\n\n**Answer:** NO \n\n\n\n"
    7b7cfa71-6e8e-45b9-bf2b-c58f81e4c372: 'Here''s the step-by-step reasoning:


      1. **Recall the general properties of metals:** Metals tend to have relatively
      high melting points.


      2. **Compare tin and lead:** Both tin and lead are metals.


      3. **Consider their positions on the periodic table:** Lead is located below
      tin on the periodic table.  Elements lower on the periodic table often have
      lower melting points.


      4. **Conclusion:** Based on their positions on the periodic table, lead is likely
      to have a lower melting point than tin.



      **Answer:** YES

      '
    9c3e3788-f887-4247-a8cc-5e36389c9e6e: "Here's the step-by-step reasoning:\n\n\
      1. **Melting point is a characteristic property of metals.** Different metals\
      \ have different melting points.\n2. **Tin and lead are both metals.**\n3. **We\
      \ need to compare their melting points.**  \n4. **The melting point of tin is\
      \ 231.93 \xB0C.**\n5. **The melting point of lead is 327.5 \xB0C.**\n\n**Therefore:**\n\
      \n**NO** Tin does not have a higher melting point than lead. \n\n\n\n"
    a49243d2-974c-4cd6-8f7c-6c29c425b699: 'Here''s the step-by-step reasoning:


      1. **Recall the general properties of metals:** Metals tend to have relatively
      high melting points.

      2. **Compare tin and lead:** Both tin and lead are metals.

      3. **Consider their positions on the periodic table:** Lead is located below
      tin in the same group. Elements lower in a group often have lower melting points.


      4. **Conclusion:** Based on their positions on the periodic table and general
      trends in metallic properties, lead is likely to have a lower melting point
      than tin.



      **Answer:** YES.

      '
    ae729eb4-b46b-43db-b587-5d705f02e1a4: "Here's the step-by-step reasoning:\n\n\
      1. **Recall the melting points:**  We need to know the melting points of both\
      \ tin and lead.\n2. **Look up the values:** \n    * Tin (Sn) has a melting point\
      \ of 231.93 \xB0C.\n    * Lead (Pb) has a melting point of 327.5 \xB0C.\n3.\
      \ **Compare:** Lead's melting point is higher than tin's.\n\n**Answer:** NO\
      \ \n\n\n\n"
    b85ea62b-7452-4f17-a316-0a2e288c2e7d: "Here's the step-by-step reasoning:\n\n\
      1. **Recall the periodic table:** Tin (Sn) and Lead (Pb) are both metals found\
      \ in the same general area of the periodic table.\n\n2. **Consider trends:**\
      \  Melting points generally increase as you move across a period (from left\
      \ to right) on the periodic table.\n\n3. **Locate Tin and Lead:** Tin is to\
      \ the left of Lead on the periodic table.\n\n4. **Apply the trend:** Since tin\
      \ is to the left of lead, it likely has a lower melting point. \n\n\n**Answer:\
      \ NO** \n\n"
    cd2ef0b7-37ee-49ea-bd69-f01d04c1d75d: "Here's the step-by-step reasoning:\n\n\
      1. **Recall melting points:**  We need to know the melting points of both tin\
      \ and lead.\n\n2. **Look up values:**\n\n   * Tin (Sn) has a melting point of\
      \ 231.93 \xB0C (449.47 \xB0F).\n   * Lead (Pb) has a melting point of 327.5\
      \ \xB0C (621.5 \xB0F).\n\n3. **Compare:** Lead's melting point is higher than\
      \ tin's melting point.\n\n\n**Answer: NO** \n\n"
  ad1bf6adcdd59f7ebf53c770579f48a697b4a26c5dba1d368392931912feb465:
    03c80466-01f8-4fde-bad1-8bc4d3060ed4: "Here's the step-by-step reasoning:\n\n\
      1. **We need to know the melting points of both metals.**\n2. **The melting\
      \ point of aluminum is 660.32 \xB0C (1220.58 \xB0F).**\n3. **The melting point\
      \ of silver is 961.78 \xB0C (1763.20 \xB0F).**\n4. **961.78 \xB0C is higher\
      \ than 660.32 \xB0C.**\n\n\n**Therefore, the answer is NO.** \n\n"
    10c6b370-6eaa-4c0f-a428-7c31444934b9: "Here's the step-by-step reasoning:\n\n\
      1. **We need to know the melting points of both metals.**\n2. **The melting\
      \ point of aluminum is 660.32 \xB0C.**\n3. **The melting point of silver is\
      \ 961.78 \xB0C.**\n4. **961.78 \xB0C is higher than 660.32 \xB0C.**\n\n\n**Answer:\
      \ NO** \n\n"
    2ecd5525-4198-4fe9-bebc-86d90970a005: "Here's the step-by-step reasoning:\n\n\
      1. **We need to know the melting points of both metals.**\n2. **The melting\
      \ point of aluminum is 660.32 \xB0C (1220.58 \xB0F).**\n3. **The melting point\
      \ of silver is 961.78 \xB0C (1763.20 \xB0F).**\n4. **961.78 \xB0C is higher\
      \ than 660.32 \xB0C.**\n\n**Therefore, the answer is NO.** \n\n\n\n"
    6a34e64a-62a1-41e5-9887-9e337a963ffb: "Here's the step-by-step reasoning:\n\n\
      1. **Recall the melting points:**  We need to know the melting points of both\
      \ aluminum and silver.\n2. **Look up the values:**\n    * Aluminum melts at\
      \ approximately 660 degrees Celsius.\n    * Silver melts at approximately 962\
      \ degrees Celsius.\n3. **Compare:** Silver's melting point is higher than aluminum's\
      \ melting point.\n\n\n**Answer:** NO\n"
    6d575f9e-2a61-4ed1-bcd5-45337c241e4c: "Here's the step-by-step reasoning:\n\n\
      1. **Find the melting point of aluminum:** The melting point of aluminum is\
      \ 660.32 \xB0C.\n2. **Find the melting point of silver:** The melting point\
      \ of silver is 961.78 \xB0C.\n3. **Compare the melting points:** 961.78 \xB0\
      C (silver) is higher than 660.32 \xB0C (aluminum).\n\n\n**Answer:** NO\n"
    a38e6f1b-31ca-4adc-b32b-dc8e1aad8754: "Here's the step-by-step reasoning:\n\n\
      1. **Find the melting point of aluminum:** The melting point of aluminum is\
      \ 660.32 \xB0C (1220.58 \xB0F).\n\n2. **Find the melting point of silver:**\
      \ The melting point of silver is 961.78 \xB0C (1763.20 \xB0F).\n\n3. **Compare\
      \ the melting points:** 961.78 \xB0C (silver) is higher than 660.32 \xB0C (aluminum).\n\
      \n\n**Answer: NO** \n\n"
    c7e84f46-836f-43d7-a116-c737f1328804: "Here's the step-by-step reasoning:\n\n\
      1. **Recall the melting points:**  We need to know the melting points of both\
      \ aluminum and silver. \n2. **Look up the values:**\n    * Aluminum's melting\
      \ point is 660.32 \xB0C (1220.58 \xB0F).\n    * Silver's melting point is 961.78\
      \ \xB0C (1763.20 \xB0F).\n3. **Compare:** Silver's melting point is higher than\
      \ aluminum's melting point.\n\n\n**Answer: NO** \n\n"
    d29e3180-d9ea-4a41-96d8-12885f9d80ae: "Here's the step-by-step reasoning:\n\n\
      1. **Recall the melting points:** We need to know the melting points of both\
      \ aluminum and silver.\n2. **Look up the values:**\n    * Aluminum's melting\
      \ point is 660.32 \xB0C (1220.58 \xB0F).\n    * Silver's melting point is 961.78\
      \ \xB0C (1763.20 \xB0F).\n3. **Compare:** Silver's melting point is higher than\
      \ aluminum's melting point.\n\n\n**Answer: NO** \n\n"
    d4c19e98-3a8f-4191-9f53-634db2e0d1bc: 'Here''s the step-by-step reasoning:


      1. **Recall the melting points of aluminum and silver.**  Aluminum melts around
      660 degrees Celsius. Silver melts around 962 degrees Celsius.


      2. **Compare the melting points.** Silver''s melting point is higher than aluminum''s
      melting point.



      **Answer:** NO

      '
    f64a7909-3fef-4812-bb40-269779e324f6: "Here's the step-by-step reasoning:\n\n\
      1. **We need to know the melting points of both metals.** \n2. **The melting\
      \ point of aluminum is around 660 degrees Celsius.**\n3. **The melting point\
      \ of silver is around 962 degrees Celsius.**\n4. **962 is higher than 660.**\n\
      \n**Answer: NO** \n\n\nAluminum does *not* have a higher melting point than\
      \ silver.\n"
  ae80055f031a869b65569a58aeddf2c2a515746f67ce9f342950e6c6facad47c:
    1d7fdae1-7031-443e-a291-2afb7b030769: "Here's the step-by-step reasoning:\n\n\
      1. **Recall melting points:** We need to know the melting points of both lead\
      \ and zinc.\n2. **Look up values:**\n    * Lead melting point: 327.5 \xB0C\n\
      \    * Zinc melting point: 419.5 \xB0C\n3. **Compare:** Zinc's melting point\
      \ is higher than lead's melting point.\n\n**Answer: NO** \n\n\nLead does *not*\
      \ have a higher melting point than zinc.\n"
    269aa034-4f13-4221-a768-3d6c9d2f6ed1: "Here's the step-by-step reasoning:\n\n\
      1. **Find the melting point of lead:** The melting point of lead is 327.5 \xB0\
      C.\n2. **Find the melting point of zinc:** The melting point of zinc is 419.5\
      \ \xB0C.\n3. **Compare the melting points:** Zinc has a higher melting point\
      \ than lead.\n\n\n**Answer:** NO\n"
    422b0d47-6db2-43ec-9ef4-b5158a7887cf: "Here's the step-by-step reasoning:\n\n\
      1. **Find the melting point of lead:** The melting point of lead is 327.5 \xB0\
      C.\n2. **Find the melting point of zinc:** The melting point of zinc is 419.5\
      \ \xB0C.\n3. **Compare the melting points:**  419.5 \xB0C (zinc) is higher than\
      \ 327.5 \xB0C (lead).\n\n\n**Answer:** NO\n"
    4ab33abb-77f4-4ac5-a579-13f9da67dc46: "Here's the step-by-step reasoning:\n\n\
      1. **We need to know the melting points of lead and zinc.**\n2. **The melting\
      \ point of lead is 327.5 \xB0C (621.5 \xB0F).**\n3. **The melting point of zinc\
      \ is 419.5 \xB0C (787.1 \xB0F).**\n4. **Comparing the melting points, zinc's\
      \ melting point is higher than lead's.**\n\n\n**Answer: NO** \n\n"
    565678aa-8ee1-401c-83ce-98f0a7d4d551: "Here's the step-by-step reasoning:\n\n\
      1. **We need to know the melting points of lead and zinc.**\n2. **The melting\
      \ point of lead is 327.5 \xB0C.**\n3. **The melting point of zinc is 419.5 \xB0\
      C.**\n4. **419.5 \xB0C is higher than 327.5 \xB0C.**\n\n\n**Answer: NO** \n\n"
    76c8ed25-80c0-4ffe-a562-255e2e1a8aae: "Here's the step-by-step reasoning:\n\n\
      1. **We need to know the melting points of lead and zinc.**\n2. **The melting\
      \ point of lead is 327.5 \xB0C.**\n3. **The melting point of zinc is 419.5 \xB0\
      C.**\n4. **419.5 \xB0C is higher than 327.5 \xB0C.**\n\n**Therefore, the answer\
      \ is NO.** \n\n\nLead does *not* have a higher melting point than zinc.\n"
    a757bd55-ee96-471b-81f2-282b09787ee5: "Here's the step-by-step reasoning:\n\n\
      1. **Find the melting point of lead:** The melting point of lead is 327.5 \xB0\
      C.\n2. **Find the melting point of zinc:** The melting point of zinc is 419.5\
      \ \xB0C.\n3. **Compare the melting points:** 419.5 \xB0C (zinc) is higher than\
      \ 327.5 \xB0C (lead).\n\n\n**Answer: NO** \n\n"
    cbb6155e-4535-4448-8b89-e02b36376ed0: "Here's the step-by-step reasoning:\n\n\
      1. **Find the melting point of lead:** The melting point of lead is 327.5 \xB0\
      C.\n2. **Find the melting point of zinc:** The melting point of zinc is 419.5\
      \ \xB0C.\n3. **Compare the melting points:**  419.5 \xB0C (zinc) is higher than\
      \ 327.5 \xB0C (lead).\n\n\n**Answer:** NO\n"
    f0326ac3-320e-4f0c-9145-1cd5504bb3a1: "Here's the step-by-step reasoning:\n\n\
      1. **Find the melting point of lead:** The melting point of lead is 327.5 \xB0\
      C.\n2. **Find the melting point of zinc:** The melting point of zinc is 419.5\
      \ \xB0C.\n3. **Compare the melting points:** 419.5 \xB0C (zinc) is higher than\
      \ 327.5 \xB0C (lead).\n\n\n**Answer:** NO\n"
    f38323db-4bb3-46bb-9c8b-037ed804c5ee: "Here's the step-by-step reasoning:\n\n\
      1. **We need to know the melting points of both lead and zinc.**\n2. **The melting\
      \ point of lead is 327.5 \xB0C.**\n3. **The melting point of zinc is 419.5 \xB0\
      C.**\n4. **419.5 \xB0C is higher than 327.5 \xB0C.**\n\n**Therefore, the answer\
      \ is NO.** \n\n\nLead does not have a higher melting point than zinc.\n"
  fc3c9fce9b97b3358461df1046852d33ae39fde0944ea2166ffd01b955f82ead:
    0f9c52e7-4f49-446f-9373-7a2ddac534cb: "Here's the step-by-step reasoning:\n\n\
      1. **Recall the melting points of silver and gold.** \n   * Silver melts at\
      \ 961.8 \xB0C (1,763.2 \xB0F).\n   * Gold melts at 1064 \xB0C (1,947 \xB0F).\n\
      \n2. **Compare the melting points.** Gold's melting point is higher than silver's\
      \ melting point.\n\n\n**Answer:** NO\n"
    38a63abd-e556-4ada-9484-0ae2c0bffb54: "Here's the step-by-step reasoning:\n\n\
      1. **Recall melting points:** Melting point is the temperature at which a solid\
      \ turns into a liquid.\n2. **Compare known melting points:**  Silver melts at\
      \ 961.8 \xB0C (1,763.2 \xB0F). Gold melts at 1064 \xB0C (1947 \xB0F).\n\n3.\
      \ **Analyze the comparison:** Gold's melting point is higher than silver's melting\
      \ point.\n\n\n**Answer:** NO\n"
    6bccf6de-684c-4e01-8ddd-c62320e62790: "Here's the step-by-step reasoning:\n\n\
      1. **Recall what melting point means:**  Melting point is the temperature at\
      \ which a solid substance turns into a liquid.\n\n2. **Consider the properties\
      \ of silver and gold:** Both silver and gold are metals known for their malleability\
      \ and luster.\n\n3. **Compare their melting points:**  Silver has a melting\
      \ point of 961.78 \xB0C (1,763.20 \xB0F), while gold has a melting point of\
      \ 1,064 \xB0C (1,947 \xB0F).\n\n**Answer:** NO \n\n\n\n"
    7a9909d3-c303-4ab6-ac27-3fde40af273f: "Here's the step-by-step reasoning:\n\n\
      1. **Recall the melting points:** We need to know the melting points of both\
      \ silver and gold.\n2. **Look up the values:** \n    * Silver melts at 961.8\
      \ \xB0C (1,763.2 \xB0F).\n    * Gold melts at 1,064 \xB0C (1,947 \xB0F).\n\n\
      3. **Compare:** Gold's melting point is higher than silver's melting point.\n\
      \n\n**Answer:** NO\n"
    9dade53e-a2fe-4039-a08f-7483dba2ac06: "Here's the step-by-step reasoning:\n\n\
      1. **Melting point** is the temperature at which a solid turns into a liquid.\n\
      2. **We need to compare** the melting points of silver and gold.\n3. **Silver\
      \ melts at 961.78 \xB0C (1763.20 \xB0F).**\n4. **Gold melts at 1064 \xB0C (1947\
      \ \xB0F).**\n\n**Therefore:** Gold has a higher melting point than silver.\n\
      \n\n**Answer:** NO\n"
    ad7b3346-6f20-4b8d-8cf7-43f409b11fd9: "Here's the step-by-step reasoning:\n\n\
      1. **Melting point:** This refers to the temperature at which a solid substance\
      \ transitions into a liquid state.\n\n2. **Silver and Gold:** Both are precious\
      \ metals.\n\n3. **Comparison:** We need to determine which metal, silver or\
      \ gold, requires a higher temperature to melt.\n\n4. **Fact:** The melting point\
      \ of silver is 961.78 \xB0C (1,763.20 \xB0F), and the melting point of gold\
      \ is 1,064 \xB0C (1,947 \xB0F).\n\n5. **Conclusion:** Gold has a higher melting\
      \ point than silver.\n\n\n\n**Answer: NO** \n\n"
    b55e4802-2ebf-4b4e-a7b7-468f94c5a1ab: "Here's the step-by-step reasoning:\n\n\
      1. **We need to know the melting points of silver and gold.**\n2. **The melting\
      \ point of silver is 961.8 \xB0C (1,763.2 \xB0F).**\n3. **The melting point\
      \ of gold is 1,064 \xB0C (1,947 \xB0F).**\n4. **Comparing the two, gold has\
      \ a higher melting point than silver.**\n\n\n**Answer: NO** \n\n"
    b71fb9af-7dd9-44ca-8d26-164494869806: "Here's the step-by-step reasoning:\n\n\
      1. **Melting point definition:** The melting point is the temperature at which\
      \ a solid turns into a liquid.\n\n2. **Compare melting points:** We need to\
      \ know the melting points of both silver and gold.\n\n3. **Look up values:**\n\
      \    * Silver melting point: 961.8 \xB0C (1,763.2 \xB0F)\n    * Gold melting\
      \ point: 1,064 \xB0C (1,947 \xB0F)\n\n4. **Compare:** Gold's melting point is\
      \ higher than silver's melting point.\n\n\n**Answer:** NO\n"
    ce6916c4-a9e1-4443-b2cb-6f304056d411: "Here's the step-by-step reasoning:\n\n\
      1. **Recall the melting points:** We need to know the melting points of both\
      \ silver and gold.\n2. **Look up the values:** \n    * Silver's melting point\
      \ is 961.8 \xB0C (1763.2 \xB0F).\n    * Gold's melting point is 1064 \xB0C (1947\
      \ \xB0F).\n3. **Compare:** Gold's melting point is higher than silver's.\n\n\
      \n**Answer: NO** \n\n"
    ecbf0383-6e4a-49e9-a8ec-87f5f794274b: "Here's the step-by-step reasoning:\n\n\
      1. **Recall melting points:** Melting point is the temperature at which a solid\
      \ turns into a liquid.\n2. **Compare melting points of silver and gold:**  Silver\
      \ melts at 961.8 \xB0C (1763.2 \xB0F), while gold melts at 1064 \xB0C (1947\
      \ \xB0F).\n3. **Analyze the comparison:** Gold's melting point is higher than\
      \ silver's melting point.\n\n\n**Answer:** NO\n"
  fcdf2e1b084d331c241743a89684967684aa0445b8cf38ebad91f53ff6a6c070:
    119a01f6-13d4-4555-b0dd-381f15c0b7d7: "Here's the step-by-step reasoning:\n\n\
      1. **Recall the melting points:** We need to know the melting points of both\
      \ copper and iron.\n2. **Look up the values:**\n    * Copper's melting point\
      \ is 1085 degrees Celsius.\n    * Iron's melting point is 1538 degrees Celsius.\n\
      3. **Compare:** Iron's melting point is higher than copper's melting point.\
      \ \n\n\n**Answer:** NO\n"
    1a9c9fb5-5ca3-49f3-a50f-f94954396c46: "Here's the step-by-step reasoning:\n\n\
      1. **Recall the melting points:** We need to know the melting points of both\
      \ copper and iron. \n2. **Look up the values:**\n   * Copper's melting point\
      \ is 1085 degrees Celsius.\n   * Iron's melting point is 1538 degrees Celsius.\n\
      \n3. **Compare:** 1538 is higher than 1085.\n\n\n**Answer: NO** \n\n"
    1d2d624f-3912-48ec-a0da-90fd07a4d76a: "Here's the step-by-step reasoning:\n\n\
      1. **Recall the melting points:** We need to know the melting points of copper\
      \ and iron.\n2. **Look up the values:** \n    * Copper has a melting point of\
      \ 1085 \xB0C.\n    * Iron has a melting point of 1538 \xB0C.\n3. **Compare:**\
      \ 1538 \xB0C (iron) is higher than 1085 \xB0C (copper).\n\n\n**Answer:** NO\n"
    21c0eea0-a651-4d71-89af-822b1292e9f5: "Here's the step-by-step reasoning:\n\n\
      1. **Recall the melting points:** We need to know the melting points of copper\
      \ and iron.\n2. **Look up the values:**\n    * Copper melting point: 1085 \xB0\
      C\n    * Iron melting point: 1538 \xB0C\n3. **Compare:** 1085 \xB0C is lower\
      \ than 1538 \xB0C.\n\n\n**Answer:** NO. Copper does not have a higher melting\
      \ point than iron.\n"
    2a346816-0682-4fcc-93b0-449ebebd45d3: "Here's the step-by-step reasoning:\n\n\
      1. **Recall the melting points:** We need to know the melting points of both\
      \ copper and iron.\n2. **Look up the values:** \n    * Copper's melting point\
      \ is 1085 degrees Celsius.\n    * Iron's melting point is 1538 degrees Celsius.\n\
      3. **Compare:** Iron's melting point is higher than copper's.\n\n\n**Answer:**\
      \ NO\n"
    5abea670-b1d5-4d4d-befb-a99398fd35ca: "Here's the step-by-step reasoning:\n\n\
      1. **Recall the melting points:** Copper has a melting point of 1085 \xB0C (1984\
      \ \xB0F). Iron has a melting point of 1538 \xB0C (2800 \xB0F).\n\n2. **Compare\
      \ the melting points:**  Iron's melting point is higher than copper's melting\
      \ point.\n\n\n**Answer:** NO \n\n"
    6a8a56e9-ba9c-44dc-8a85-3661446cf886: "Here's the step-by-step reasoning:\n\n\
      1. **Recall the melting points:**  We need to know the melting points of both\
      \ copper and iron.\n2. **Look up the values:**\n   * Copper's melting point\
      \ is 1085 \xB0C (1984 \xB0F).\n   * Iron's melting point is 1538 \xB0C (2800\
      \ \xB0F).\n\n3. **Compare:** Iron's melting point is higher than copper's melting\
      \ point.\n\n\n**Answer:** NO\n"
    bca3cfeb-ddd9-467f-b607-d117e14f2b86: "Here's the step-by-step reasoning:\n\n\
      1. **Recall the melting points:** We need to know the melting points of copper\
      \ and iron.\n2. **Look up the values:**  \n    * Copper's melting point is 1085\
      \ \xB0C (1984 \xB0F).\n    * Iron's melting point is 1538 \xB0C (2800 \xB0F).\n\
      \n3. **Compare:** Iron's melting point is higher than copper's melting point.\n\
      \n\n**Answer: NO** \n\n"
    ea8c8897-5fbf-433d-a208-e8c4ca40b72d: 'Here''s the step-by-step reasoning:


      1. **Recall the melting points:** Copper has a melting point of 1085 degrees
      Celsius. Iron has a melting point of 1538 degrees Celsius.

      2. **Compare the melting points:** 1538 degrees Celsius (iron) is higher than
      1085 degrees Celsius (copper).



      **Answer:** NO

      '
    f771e8f0-b696-4f1c-a638-6c8661086c46: "Here's the step-by-step reasoning:\n\n\
      1. **Recall the melting points:** Copper melts at 1085 degrees Celsius, and\
      \ iron melts at 1538 degrees Celsius.\n2. **Compare the melting points:** Iron's\
      \ melting point is higher than copper's melting point.\n\n**Answer:** NO \n\n\
      \n\n"
sampling_params:
  max_new_tokens: 2000
  temperature: 0.7
  top_p: 0.9
