atcoder_stats:
  atcodertools_cmd_failed: -1
  compilation_failed: -1
  finding_code_failed: -1
  solution_failed: -1
  solution_passed: -1
ds_params:
  answer: 'NO'
  comparison: gt
  max_comparisons: 1
  prop_id: melting-points
  uuid: 3db213fb
fsp_by_resp_id: null
instr_id: instr-v0
model_id: Qwen/Qwen2.5-0.5B-Instruct
responses_by_qid:
  52858026b29a6a660cb7db9907da2469d8237449f3ea5b7ebc65539c268faba0:
    00805c11-d768-4c15-a666-5cb3a0dc43bc: NO. Gold has a lower melting point than
      copper because the atomic arrangement in gold (Au) is different from that in
      copper (Cu). Gold atoms have 8 valence electrons, while each copper atom has
      2 valence electrons. When gold atoms are placed in a crystal lattice structure,
      they form an octahedral structure with four Au atoms around one Cu atom, resulting
      in a higher melting point compared to a similar arrangement in copper.
    3d82336a-45c4-4299-8fab-3175ec579fe4: YES. Gold has a higher melting point than
      copper due to its different atomic structures and properties. Gold (Au) has
      a lower melting point at room temperature compared to copper (Cu). The difference
      in their melting points can be attributed to differences in the arrangement
      of atoms within the metals and the presence of impurities or impurity elements
      that affect the chemical behavior of the metals. Copper typically has a higher
      melting point because it forms more stable compounds with oxygen, while gold
      forms less stable compounds.
    47d74a82-2d19-4e41-bddd-39c76726e15b: 'NO'
    4be2aac7-7dc1-403b-b5d2-58839329c42e: YES. Gold and copper both contain the elements
      iron (in copper) and silver (in gold), which makes them both ductile metals
      that can be shaped and worked into various forms without cracking under normal
      conditions. Therefore, they have similar melting points, but not necessarily
      higher because they do not possess unique properties like those found in diamond
      or other high-temperature alloys.
    6037b3a8-bc9b-4d28-8357-0a874e36b0bc: NO.
    7d81277a-a1e1-426f-affa-4f3936371686: 'NO'
    c50586de-9ccf-4595-bb45-37805a42c2d6: 'NO'
    d5ab4057-716f-4ca2-b681-d2e7f21defe2: NO.
    d5f0880d-1b40-4dc9-9b1e-a7f8a8ac1d9b: 'NO'
    e0dd227c-735f-47c5-9f65-912938871483: "Yes, gold has a higher melting point than\
      \ copper. To determine this, we need to consider the general behavior of metals\
      \ at their respective melting points.\n\n1. **Melting Point**: The melting point\
      \ of a metal refers to its temperature at which it becomes a liquid under standard\
      \ conditions (i.e., at 0\xB0C or 273.15 K for absolute zero).\n\n2. **Gold Melting\
      \ Point**: Gold melts at approximately 968\xB0C (1,542\xB0F) at standard atmospheric\
      \ pressure.\n\n3. **Copper Melting Point**: Copper's melting point ranges from\
      \ 1,083\xB0C (1,912\xB0F) at room temperature to around 1,412\xB0C (2,700\xB0\
      F) in certain environments like very high pressures.\n\n**Comparison**:\n- At\
      \ room temperature, both gold and copper can melt simultaneously because they\
      \ have similar densities and atomic structures.\n- However, as you move towards\
      \ higher temperatures, the melting point of each metal increases due to increased\
      \ energy required to overcome the intermolecular forces holding them together.\n\
      \nGiven these factors, while copper can indeed be melted at extremely low temperatures\
      \ compared to gold, the difference in melting points between the two metals\
      \ remains relatively small.\n\nTherefore, based on this reasoning, the answer\
      \ to the question \"Does gold have a higher melting point than copper? \" is\
      \ **YES**, but with a slight caveat that the difference in melting points is\
      \ quite significant, especially when considering typical industrial applications\
      \ where precision may be crucial."
  77243713b7726192fac54e13dd136ea0a0d29c420a08bb13f96264867e009a35:
    0732a04f-2d9c-4dc7-a149-a1ecd0c65da4: 'NO'
    2072c6d3-86b4-4c30-bdd3-e5f6123e81e7: "YES.\n\nTo determine if zinc has a higher\
      \ melting point than aluminum, we need to consider their chemical properties\
      \ and physical states. Here's the step-by-step reasoning process:\n\n1. **Chemical\
      \ Properties:**\n   - Zinc (Zn) and aluminum (Al) both belong to the same group\
      \ of metals on the periodic table. This means they share similar chemical properties,\
      \ including their tendency to form compounds with other elements.\n   - Both\
      \ metals are generally more reactive than silver (Ag), which would make them\
      \ less likely to melt at room temperature compared to other metals like silver.\n\
      \n2. **Melting Points:**\n   - Melting points are defined as the temperature\
      \ at which a substance can start to solidify in a liquid state. They are typically\
      \ expressed in Kelvin (K).\n   - While zinc and aluminum have different melting\
      \ points, for most practical purposes, they will have approximately the same\
      \ melting point when considered under the same conditions.\n\n3. **Temperature\
      \ Range:**\n   - The melting point of aluminum is around 647\xB0C (1,190\xB0\
      F) at standard atmospheric pressure.\n   - The melting point of zinc ranges\
      \ from about 850\xB0C (1, 000\xB0F) to about 1, 372\xB0C (2, 030\xB0F).\n\n\
      Given these considerations:\n- For many applications where safety and operational\
      \ feasibility are important, it might be beneficial to use an alloy containing\
      \ both metals rather than pure metallic zinc.\n- However, considering that zinc\
      \ and aluminum have similar melting points and are commonly used together in\
      \ various alloys and structural materials, it's reasonable to conclude that\
      \ their melting points are essentially the same under typical industrial and\
      \ environmental conditions.\n\nTherefore, based on chemical properties and common\
      \ usage scenarios, it is highly probable that zinc has a lower melting point\
      \ than aluminum."
    333b59ac-152a-4240-a501-79785b8e6168: 'NO'
    3c635b81-be14-46f3-a0df-e7c951000998: 'NO'
    70febdbb-5357-4609-a89a-457d971ff749: 'NO'
    93ddcb07-67b4-454a-be3c-44c75de532e6: NO.
    96437ff2-d3c9-4661-a9ce-9355bb406720: 'NO'
    9a0c48e4-19db-4d5b-9992-7375cc6a156f: 'NO'
    bafe4701-5241-4635-884a-62085bff54d7: "NO.\n\nTo determine whether zinc has a\
      \ higher melting point than aluminum, we need to understand the properties of\
      \ both metals in terms of their melting points. Here's a step-by-step analysis:\n\
      \n1. **Aluminum**: Aluminum is a silvery-white metal that is generally malleable\
      \ and ductile. It has a melting point around 650\xB0C (1242\xB0F) at room temperature.\n\
      \n2. **Zinc**: Zinc is another metallic element, but it is not typically found\
      \ as an impurity in pure aluminum. However, when heated, it can melt above its\
      \ melting point. Zinc has a melting point close to 300\xB0C (572\xB0F).\n\n\
      **Comparison**: While aluminum has a lower melting point (around 650\xB0C),\
      \ zinc also has a lower melting point compared to aluminum (around 300\xB0C).\
      \ This means that while zinc can be melted below aluminum's melting point, it\
      \ cannot melt at or below that of aluminum.\n\nTherefore, zinc does have a higher\
      \ melting point than aluminum."
    c617843a-057d-4788-929e-89f03271a63f: 'NO'
  a6d73221c8137b4b342fb833d7d29460e8a175b78fe1e035d24ef9c2045c22b9:
    342a8e02-75c5-4d54-922a-cd8734d6c119: "Yes.  \nTin (an alloy of tin and lead)\
      \ has a higher melting point than pure lead due to the presence of impurities\
      \ such as sulfur and phosphorus in lead. Lead is more ductile and malleable,\
      \ making it easier to work with, but tin's properties make it more resistant\
      \ to heat and corrosion compared to lead."
    653590b1-b6d8-48b1-940b-d003bc8cbe7e: YES. Tin has a higher melting point than
      lead. The transition from tin to lead is characterized by a significant increase
      in temperature and pressure, which results in a substantial increase in the
      melting point compared to lead itself.
    6662edc9-ea51-4b7a-ba92-1b626a735cf0: Yes.
    7ee163b4-0123-4eb9-b6a2-4b39dd7c7776: 'NO'
    8dfcb6b8-2df6-42ca-b8ba-c7993fd076aa: 'NO'
    984f9886-c01e-4380-880c-2537e6a9ae4b: 'YES. Tin has a lower melting point than
      lead. To understand why this is true, we need to consider the relationship between
      melting points and atomic structure.


      1. **Atomic Structure**: Both tin (Sn) and lead (Pb) are metals and belong to
      the same group in the periodic table. In general, metal atoms tend to be more
      stable at higher temperatures because they form ionic bonds which are weaker
      than covalent bonds but stronger than metallic bonds.


      2. **Metallic Bonds**: For tin, the most stable bonding arrangement involves
      the formation of a tetrahedral arrangement where each atom shares its valence
      electron with four others. Lead also forms a similar tetrahedral arrangement,
      but it does so with a different number of electrons due to the presence of two
      extra protons (2e- instead of 4).


      3. **Tetrahedral Bonding**: With the second set of electrons added, tin''s bonding
      becomes more effective at forming ionic compounds, making it less likely for
      tin to ionize readily compared to lead. This increased stability leads to a
      lower melting point for tin.


      Therefore, tin indeed has a lower melting point than lead, despite both being
      metals and belonging to the same period in the periodic table.'
    b67d2fbe-0185-44fa-895a-2e8bfd0ba492: "Yes. To determine if tin has a higher melting\
      \ point than lead, we need to understand the atomic structure of these metals.\n\
      \n1. **Atomic Structure**:\n   - Tin (Sn) has an atomic number of 50, which\
      \ means it consists of 20 protons in its nucleus.\n   - Lead (Pb) also has an\
      \ atomic number of 82, consisting of 82 protons in its nucleus.\n\n2. **Electron\
      \ Configuration**:\n   - Tin has one more electron than lead because of the\
      \ extra neutron in its nucleus.\n   - Tin's valence electrons are 4 from each\
      \ of its 20 protons and 6 additional from its extra neutron.\n   - Lead has\
      \ 7 valence electrons.\n\n3. **Energy Level Distribution**:\n   - The energy\
      \ levels of atoms are quantized, meaning that certain energy states cannot be\
      \ occupied at the same time. This leads to the periodic table where elements\
      \ are grouped based on their energy level.\n   - Tin occupies the fourth energy\
      \ level (the s subshell), while lead occupies the third energy level (the p\
      \ subshell).\n\n4. **Melting Point and Boiling Point**:\n   - Melting points\
      \ and boiling points typically depend on the number of electrons in the outermost\
      \ shell.\n   - Tin\u2019s outermost electron configuration is 2s\xB2 2p\u2076\
      , making it stable in the solid state.\n   - Lead\u2019s outermost electron\
      \ configuration is 4s\xB9, making it more stable in the solid state.\n\nGiven\
      \ this information, tin would likely have a lower melting point compared to\
      \ lead due to its lower electron configuration, particularly in the s subshell.\n\
      \nTherefore, tin does have a higher melting point than lead."
    bfa637f9-d4d3-4ab5-98d7-a8528a676580: 'NO'
    cbe65025-550b-42bb-94a5-2e4a0f36be23: Yes.
    f76f305c-7d3f-4400-b96b-e964f933f74e: "YES. Tin (Sn) has a lower melting point\
      \ than lead (Pb). Tins, which include tinplate, have a melting point around\
      \ 260-280\xB0C (500-590\xB0F), while pure lead has a much lower melting point\
      \ at approximately 327\xB0C (619\xB0F)."
  ad1bf6adcdd59f7ebf53c770579f48a697b4a26c5dba1d368392931912feb465:
    006e1729-d715-4592-9803-afcfa5cff496: 'YES'
    0571caa1-2e2b-4ad4-8ddd-d9b99e65b26d: "NO\n\nTo determine whether aluminum has\
      \ a higher melting point than silver, we need to understand the relationship\
      \ between the melting points of metals.\n\n1. **Aluminum's Melting Point**:\
      \ Aluminum melts at approximately 660\xB0C (1232\xB0F).\n2. **Silver's Melting\
      \ Point**: Silver melts at about 965\xB0C (1,745\xB0F).\n\nSince 660\xB0C is\
      \ less than 965\xB0C, it means that aluminum does not melt at a lower temperature\
      \ than silver. Therefore, the melting point of aluminum is lower than that of\
      \ silver.\n\n**YES**"
    1457e715-3ea8-44f3-a21b-b98284f7f0f3: 'YES'
    1f9bb0a2-aff3-4a27-8982-c403f34e42c2: NO.
    2f9ba189-e7ec-4e5a-82ca-c2be83073d8c: 'NO'
    3ed93e47-e464-4650-b47f-466b6a003f2d: 'NO'
    70e9f818-e1d4-4bc0-9917-ef03aaccb895: 'NO'
    80f82f95-5aff-4549-b0f6-94b6315169b4: YES. Aluminum has a higher melting point
      than silver due to its structure. When heated, aluminum atoms gain energy from
      the heat and move farther apart, while silver atoms remain close together and
      do not move as much. This results in aluminum having a lower melting point compared
      to silver.
    f809e2b9-d377-46bf-9a3f-7086a996f756: 'YES. Aluminum has a higher melting point
      than silver because the atomic structure of metal elements determines their
      physical properties, including melting points. The electrons in an atom''s outer
      shell can gain energy to overcome the repulsion between them and become part
      of another electron shell. In metals like aluminum, this process creates free
      electrons that contribute to its electrical conductivity. These free electrons
      also create negative ions (cations) within the metal, which further increases
      its conductivity. As a result, aluminum has a higher melting point compared
      to other metals.


      Silver, on the other hand, does not have any free electrons or cations to interact
      with these negatively charged particles. This leads to lower melting points
      for silver compared to aluminum.'
    fd9b6a9a-a410-40a9-aafd-1be89d446f85: "YES. Alloys of metals such as aluminum\
      \ and silver can undergo phase transformations when melted at elevated temperatures,\
      \ including melting at about 240-315\xB0C (468-570\xB0F). This means that even\
      \ if the melting points for these two metals are different, their alloys may\
      \ exhibit similar physical properties under certain conditions due to the shared\
      \ tendency to form solid solutions. However, it's important to note that the\
      \ specific melting point range of an alloy depends on the composition and processing\
      \ methods used in its production, not just its individual components."
  ae80055f031a869b65569a58aeddf2c2a515746f67ce9f342950e6c6facad47c:
    228e9286-260a-48a2-9b69-dadb635ecca3: "YES.\n\nTo determine whether lead has a\
      \ higher melting point than zinc, we need to consider the standard melting points\
      \ of these metals:\n\n1. **Lead (Pb)**: The melting point of lead is approximately\
      \ 327\xB0C at sea level.\n2. **Zinc (Zn)**: The melting point of zinc is approximately\
      \ 460\xB0C at room temperature.\n\nNow, compare these values:\n- Lead: 327\xB0\
      C\n- Zinc: 460\xB0C\n\nSince 460\xB0C is indeed higher than 327\xB0C, lead does\
      \ indeed have a higher melting point than zinc."
    26da48fa-c552-49f1-80dc-759cd8ab4ce4: "YES. \n\nTo understand why lead has a higher\
      \ melting point than zinc, we need to consider the atomic structure and properties\
      \ of each metal.\n\n1. **Atomic Structure**: Zinc (Zn) is an 8valent metal,\
      \ meaning it has eight valence electrons in its outermost shell. Lead (Pb),\
      \ on the other hand, is a 6-valent metal, which means it has six valence electrons\
      \ in its outermost shell.\n\n2. **Electronegativity Difference**: The difference\
      \ in electronegativity between metals can affect their boiling points. Electronegativity\
      \ increases as you move from left to right across a period in the periodic table,\
      \ and decreases down a group. \n\n3. **Zinc's High Electronegativity**: Zinc\
      \ has a high electronegativity of approximately 0.745, while lead has a much\
      \ lower electronegativity of about -0.333. This higher electronegativity makes\
      \ zinc more attracted to the shared electron pairs, which helps it gain electrons\
      \ easily during the melting process.\n\n4. **Boiling Point Calculation**: Melting\
      \ points are generally influenced by the number of molecules involved and the\
      \ strength of intermolecular forces. Since zinc has many more atoms bonded together\
      \ compared to lead, zinc will experience more molecular interactions that cause\
      \ it to melt at a lower temperature than lead does.\n\nIn conclusion, given\
      \ the differences in electronegativity between zinc and lead, zinc's higher\
      \ melting point due to its greater affinity for shared electrons would be expected."
    7ec63318-da73-49aa-aaec-708cf2287f18: "NO.\n\nTo determine whether lead has a\
      \ higher melting point than zinc, we need to consider their physical properties,\
      \ particularly their melting points. Lead (Pb) and zinc (Zn) are both metals\
      \ but they differ in their atomic structure and the arrangement of electrons\
      \ within their atoms. This difference in electron distribution leads to different\
      \ chemical properties and melting points.\n\nLead has a relatively low melting\
      \ point compared to zinc due to its lower electronegativity and greater atomic\
      \ size. Lead's melting point typically ranges from about -31\xB0C to 604\xB0\
      C, while zinc melts at around 850\xB0C.\n\nTherefore, even though lead has a\
      \ lower melting point than zinc, it does not necessarily follow that lead itself\
      \ has a higher melting point than zinc. The key factor here is the differences\
      \ in the number and distribution of electrons between the two elements, which\
      \ affects their specific melting points."
    9c6eda43-1958-45b5-a79e-d2671779b2c6: "YES. Lead has a much higher melting point\
      \ than zinc. To understand why, let's break it down step by step.\n\n1. **Definition\
      \ of Melting Point**: The melting point of a substance refers to the temperature\
      \ at which its particles begin to change from solid to liquid state.\n\n2. **Lead**:\n\
      \   - Lead (Pb) has a melting point of approximately 327\xB0C (590\xB0F).\n\
      \   - This means that when heated, lead transitions directly from a solid to\
      \ a liquid.\n\n3. **Zinc**:\n   - Zinc (Zn) has a melting point of around 648\xB0\
      C (1,408\xB0F).\n\nGiven these temperatures, we can see that:\n- Lead melts\
      \ below zinc\u2019s melting point (648\xB0C vs. 327\xB0C), meaning lead cannot\
      \ melt above zinc.\n- Lead has a lower melting point than zinc.\n\nTherefore,\
      \ based on this information, we can definitively conclude that lead does indeed\
      \ have a higher melting point than zinc."
    aa415e81-4725-4bad-b5e7-aaf4920e350f: YES. Lead has a lower melting point than
      zinc because it is a metal while zinc is an alloy. The melting points of metals
      and alloys can vary slightly depending on the specific type and purity of the
      material being melted.
    be531207-ef1c-434d-9d39-81b654b296f3: 'YES'
    cef62d1b-ef66-41da-b96a-6060b3b34b6d: "YES. Lead has a much higher melting point\
      \ than zinc. To understand this, we need to consider the physical properties\
      \ of both metals.\n\n1. **Physical Properties**: \n   - Zinc (Zn): It is a silvery-white\
      \ metal that is highly malleable and ductile. It also has good thermal conductivity\
      \ and is often used in alloys for its strength and hardness.\n   - Lead (Pb):\
      \ Like zinc, lead is also a silvery-white metal but it is harder and less malleable\
      \ compared to zinc. Lead has a lower melting point than zinc due to its metallic\
      \ nature and greater resistance to deformation under stress.\n\n2. **Melting\
      \ Point**:\n   - The melting points of zinc and lead are as follows:\n     -\
      \ Melting point of zinc: 305\xB0C (574\xB0F)\n     - Melting point of lead:\
      \ 328\xB0C (608\xB0F)\n\nBased on these physical properties, it is clear that\
      \ lead has a significantly higher melting point compared to zinc. Therefore,\
      \ the answer to the question \"Does lead have a higher melting point than zinc?\
      \ \" is yes."
    e5053793-a803-4c93-b376-1b199662977a: 'NO'
    ece07647-b5fd-468b-913b-4d1a31d7288b: 'NO'
    fe2b4d52-1fb1-4bde-a1e4-8de364e8048a: NO.
  fc3c9fce9b97b3358461df1046852d33ae39fde0944ea2166ffd01b955f82ead:
    1acfedd0-99fe-449c-a8a6-36bdfcf8f34c: 'YES'
    3b0d0b9c-ed02-4e82-98f7-0d7b8d6df72d: 'YES'
    43d23df6-1305-4970-ae07-47de601f18cc: 'YES'
    7f728617-c7d7-4d78-8732-5447f8246ff7: "YES. Silver has a much higher melting point\
      \ (3284\xB0C) compared to gold (3079\xB0C). The reason for this difference lies\
      \ in the atomic structure of these metals. Silver is a silvery-white metal with\
      \ a lattice structure that allows it to hold its shape while maintaining electrical\
      \ conductivity. This property makes silver relatively malleable and ductile,\
      \ which can be beneficial in manufacturing wires or other materials that require\
      \ flexibility. Gold, on the other hand, has a more crystalline structure and\
      \ is harder to shape. Its chemical properties also make it less suitable for\
      \ many industrial applications due to its lower melting point and tendency to\
      \ crack under stress."
    84f81bfb-a7d1-4eb1-8975-06293df7acee: "Yes. Silver has a higher melting point\
      \ than gold. To determine this, we need to consider the specific melting points\
      \ of both metals:\n- Gold's melting point: 1064\xB0C (2008\xB0F)\n- Silver's\
      \ melting point: 963\xB0C (1,753\xB0F)\n\nGold is generally considered more\
      \ ductile (malleable) and less dense compared to silver. However, in certain\
      \ industrial settings where high temperatures and pressure are required, gold\
      \ can be melted down and recast into metal sheets or ingots, making it similar\
      \ to silver in terms of its melting point. For everyday applications like jewelry\
      \ and electronics, however, silver tends to have a slightly lower melting point.\n\
      \nTherefore, based on the given information, the answer to the question \"Does\
      \ silver have a higher melting point than gold?\" is **YES**."
    87edb685-ecd0-4bfd-9281-334c664bd3c1: "NO. While it's true that the atomic structure\
      \ of metals like silver (silver) and gold (gold) allows them to melt at slightly\
      \ different temperatures compared to each other, this does not necessarily mean\
      \ that one has a higher melting point than the other. In fact, the melting points\
      \ of metals can vary significantly depending on their chemical composition,\
      \ impurities, and physical properties.\n\nTo elaborate further:\n1. **Atomic\
      \ Structure**: \n   - Silver atoms typically have 4 valence electrons in their\
      \ outermost shell, while gold atoms have 8 valence electrons.\n   - The arrangement\
      \ of these electrons determines the metal's electrical conductivity, which affects\
      \ its melting point.\n\n2. **Melt Point Calculation**:\n   - The melting point\
      \ of a substance depends on factors such as its elemental composition, purity,\
      \ and temperature.\n   - For example, pure silver will melt at lower temperatures\
      \ than pure gold due to differences in atomic arrangements and bonding.\n\n\
      3. **Comparison**:\n   - Even if silver and gold share similar chemical elements,\
      \ their physical properties\u2014such as atomic structure and melting points\u2014\
      can differ enough to cause them to be distinguished from each other based solely\
      \ on their melting points.\n\nIn conclusion, while silver and gold have very\
      \ different chemical compositions, their respective melting points do not inherently\
      \ determine which has a higher melting point."
    ad95ec16-29f2-4708-8741-f74a54dfd805: 'NO'
    af3144ae-2a07-4c8d-946c-1aed2a86bab1: 'NO'
    ce3720cd-6608-4840-98a7-5620c6450609: 'Yes. Silver has a higher melting point
      than gold. This can be determined through the following process:

      1. Identify that both silver and gold are metals.

      2. Recall the relationship between the melting points of metal elements: typically,
      metals with lower melting points melt at lower temperatures than those with
      higher melting points.

      3. Compare the melting points of silver and gold to determine which one melts
      at a lower temperature.

      4. Deduce that silver, having a lower melting point, will melt at lower temperatures
      compared to gold.


      Therefore, based on this chain of logical deductions, we can conclude that yes,
      silver does have a higher melting point than gold.'
    eb7705f3-eacd-4522-a706-b8f1a1590841: "YES. Silver has a much higher melting point\
      \ than gold. To determine this accurately, we need to consider the atomic structure\
      \ and properties of both metals.\n\n1. **Atomic Structure**: Both silver (Ag)\
      \ and gold (Au) consist of atoms held together by covalent bonds. However, their\
      \ crystal structures differ significantly due to different arrangements of electrons\
      \ in the outermost shell.\n\n2. **Crystal Structure**: In silver, the outer\
      \ electron configuration is 4s\xB2 3d\u2075, which results in a lattice that\
      \ is more cubic. This makes it easier for atoms to arrange themselves into a\
      \ repeating pattern without significant overlap of electron shells.\n\n3. **Lattice\
      \ Constant**: The distance between the centers of adjacent atoms in an Ag lattice\
      \ is approximately 0.78 \xC5, while the distance between the centers of adjacent\
      \ atoms in Au's lattice is about 1.04 \xC5. \n\n4. **Melting Points**: At room\
      \ temperature, silver melts at around 961\xB0C, whereas gold typically reaches\
      \ its melting point at 1065\xB0C. \n\nGiven these differences, it is highly\
      \ likely that silver has a higher melting point compared to gold. Therefore,\
      \ yes, silver does indeed have a higher melting point than gold."
  fcdf2e1b084d331c241743a89684967684aa0445b8cf38ebad91f53ff6a6c070:
    054f56e2-990a-4d5b-b77b-1b3e180eaa54: 'YES'
    08b917b4-b35c-4394-a899-8d32c8af13ee: NO.
    31f8c41f-4613-40a8-abb0-325fe8975138: 'NO'
    80703bdf-5349-4515-a904-8d8f968cbe55: NO.
    8e9462b5-7010-490b-ad11-aa6ed969da44: 'YES. To determine whether copper has a
      higher melting point than iron, we can compare the densities and specific heat
      capacities of both metals. Copper typically has a higher density than iron due
      to its atomic structure, but this difference in density does not significantly
      affect their melting points.


      The melting point of an element is determined by the process through which it
      melts, such as sublimation (melting directly into gas), deposition, or fusion
      (combining into another substance). Both processes result in the release of
      energy, causing the element''s temperature to increase until it reaches the
      melting point.


      Given that copper and iron are made from the same elements with different atomic
      arrangements, they will have similar melting points for most purposes. The slight
      difference in density between copper and iron would likely be negligible enough
      to account for the significant difference in melting points.


      Therefore, based on these considerations, copper indeed has a higher melting
      point than iron.'
    93c74236-cf13-4689-8a61-8b6d196ec037: NO.
    c1db65cb-5d04-4233-b38d-5d15bc68a7fb: 'YES'
    d38e53bb-9399-4f39-ab5e-e1b29eba91b7: "Yes. Copper has a higher melting point\
      \ than iron. To determine this, we need to understand the properties of metals\
      \ at different temperatures.\n\n1. **Melting Points**: The melting points of\
      \ metals vary significantly depending on their chemical composition and crystal\
      \ structure. Typically, metals like copper (Cu) can melt at lower temperatures\
      \ compared to iron (Fe), which typically melts at around 1537\xB0C (2,960\xB0\
      F).\n\n2. **Chemical Composition and Crystal Structure**:\n   - Copper typically\
      \ has a high density and does not form large crystals easily in the solid state.\n\
      \   - Iron, on the other hand, forms small, interconnected crystals that are\
      \ less dense and more stable in the solid state.\n\n3. **Temperature Dependence**:\n\
      \   - At room temperature (about 20\xB0C/68\xB0F), both metals will melt at\
      \ approximately 1073 K (313\xB0C or 574\xB0F).\n   - However, as the temperature\
      \ increases, the melting point decreases. This is because increasing temperature\
      \ means each atom must move further apart from its neighbors to reach the melting\
      \ point.\n\nGiven these factors, it's reasonable to conclude that copper will\
      \ have a higher melting point than iron under normal room temperature conditions.\n\
      \nTherefore, the answer is Yes, copper has a higher melting point than iron."
    e5921a4a-b789-4069-91e7-a754b5ad90e2: YES. Copper has a higher melting point than
      iron because the atomic arrangement in copper is different from that in iron.
      The bonding between copper atoms is more stable due to the presence of an octahedral
      coordination network (CuO4) compared to the tetrahedral structure of iron oxide
      (Fe2O3). This stability makes copper atoms less likely to vibrate at their natural
      frequencies when heated, which explains why copper has a lower melting point
      than iron under normal conditions.
    fe3f4298-0996-4b54-9af9-b54adecb4579: 'YES'
sampling_params:
  max_new_tokens: 2000
  temperature: 0.7
  top_p: 0.9
