atcoder_stats:
  atcodertools_cmd_failed: -1
  compilation_failed: -1
  finding_code_failed: -1
  solution_failed: -1
  solution_passed: -1
ds_params:
  answer: 'YES'
  comparison: lt
  max_comparisons: 1
  prop_id: melting-points
  uuid: da5271b2
instr_id: instr-v0
model_id: Qwen/Qwen2.5-0.5B-Instruct
responses_by_qid:
  1186894ad7ed941717b2d2a278d32f36609500d9e80925df1bc13cdd2e5e05d9:
    11d46a8c-3951-4112-b94a-2c3f23e19c55: 'YES'
    6d5a87f7-efc7-411c-bd19-37e5b65e9e97: "NO. While the exact melting points of copper\
      \ and iron can vary slightly depending on their purity and other factors, there\
      \ is no significant difference in their melting points between the two metals.\
      \ Iron has a much higher melting point at around 1,538\xB0C (2,964\xB0F), which\
      \ makes it more resistant to thermal decomposition during processing. Copper,\
      \ on the other hand, has a relatively low melting point of about 700-750\xB0\
      C (1,272-1,200\xB0F). Therefore, while iron may be harder to work with due to\
      \ its higher melting point, it is not inherently any less malleable or ductile\
      \ compared to copper."
    6f85eef8-689f-4961-b772-cd449063cdc3: "Yes. Copper has a higher melting point\
      \ than iron because the atomic structure and arrangement of atoms in these two\
      \ metals differ significantly. The crystal structure of pure iron is hexagonal,\
      \ while that of copper is face-centered cubic (FCC). This difference in crystal\
      \ lattice structure leads to different thermal expansion coefficients and consequently\
      \ affects their melting points.\n\nTo illustrate this further:\n1. **Crystal\
      \ Structure**: Iron is an iron atom arranged in a hexagonal close-packed (HCP)\
      \ structure, whereas copper is in a face-centered cubic (FCC) structure.\n2.\
      \ **Melting Points**:\n   - **Iron (Fe)**: At 738\xB0C (1650\xB0F), iron melts\
      \ into liquid state at room temperature. Its melting point is 1538\xB0C (2982\xB0\
      F).\n   - **Copper (Cu)**: At around 1447\xB0C (2685\xB0F), copper melts completely\
      \ into its solid state at room temperature. Its melting point is 1535\xB0C (2985\xB0\
      F).\n\nSo, despite having similar chemical properties, the fundamental differences\
      \ in crystalline structure cause them to have distinct melting points, making\
      \ copper hotter than iron even though they share similar elemental compositions."
    7c70647a-7680-4885-9069-4bbf3af6d951: 'YES'
    933fe272-7104-4e74-9c81-6bf9b4b267ca: 'YES'
    bf7157a7-5b2e-4900-ba1f-d4d0cf90bd7a: "Yes. Copper has a higher melting point\
      \ than iron. The melting points of these two metals are typically around 1,538\xB0\
      C for copper and about 2,700\xB0C for iron. This difference in melting point\
      \ can significantly affect the behavior and properties of both materials when\
      \ subjected to heat treatment."
    cf4eec0b-dd0a-479c-b1d7-1b049fc37746: 'YES'
    cf965702-503d-43ed-9adf-1a814836111a: "YES. Copper has a higher melting point\
      \ than iron. This can be determined through the following process:\n\n1. **Chemical\
      \ Reactions**: When heated to a specific temperature, both copper (Cu) and iron\
      \ (Fe) undergo chemical reactions that cause their atoms to lose electrons.\
      \ The electrons are pulled away from each atom, resulting in an increase in\
      \ atomic size and thus a rise in melting points.\n\n2. **Melt Point Calculations**:\
      \ For copper at room temperature, it would melt around 308\xB0C (572\xB0F).\
      \ Iron, on the other hand, melts at about 1567\xB0C (2944\xB0F).\n\n3. **Temperature\
      \ Range**: At room temperature (around 27\xB0C or 80\xB0F), copper typically\
      \ does not fully melt until temperatures above 200-250\xB0C (392-482\xB0F).\
      \ Iron, which reaches its melting point at about 1567\xB0C, will continue to\
      \ melt once below this temperature.\n\nTherefore, based on these calculations\
      \ and typical properties, copper indeed has a lower melting point than iron."
    f29f439e-fc53-4fe3-9697-f5a972e1b212: 'YES'
    fa47b12f-a5bc-4581-8968-46611bc283ac: 'NO'
  196131913733116445fcb3d428c5d6ff97ee8ff5815bd8c4d83d165e6b2d3be7:
    17372983-3b30-42c3-b4ef-f266f3318a36: 'NO'
    2a842129-36d4-4ef2-a9b0-599ac5f19e9d: NO.
    4d502b7c-4fa8-4564-9354-39e01a7cadff: NO.
    5bfd9184-0c31-49f1-9d39-54fd90c9420a: NO.
    6ecd26b4-7622-4c00-aff6-1b7402cf43ef: NO.
    a6c4f14d-3fb7-4a96-8edb-d4072dd40feb: 'YES'
    ab18028e-796b-45a1-8f1a-c0b255c66d55: 'NO'
    d6d93c1e-7081-4702-a152-a8beb535827e: 'YES'
    e66d812e-9ec0-4a82-a5cb-47ac69fc7616: "YES. Lead has a higher melting point than\
      \ zinc. To understand this, let's break down the process of determining the\
      \ melting points of metals.\n\n1. **Understanding Melting Points:**\n   - Melting\
      \ points refer to the temperature at which a solid metal begins to melt (i.e.,\
      \ undergo a phase transition).\n   - Melting points are typically measured in\
      \ degrees Celsius (\xB0C).\n\n2. **Comparison of Melting Points:**\n   - Zinc\
      \ melts at approximately 96\xB0C.\n   - Lead melts at about 347\xB0C.\n\n3.\
      \ **Reasoning:**\n   - Since zinc has a lower melting point (96\xB0C), it will\
      \ be easier for heat energy to transfer from one metal to another until both\
      \ reach their respective melting points simultaneously.\n   - Lead, on the other\
      \ hand, has a much higher melting point (347\xB0C) compared to zinc\u2019s 96\xB0\
      C.\n\n4. **Conclusion:**\n   - Based on this comparison, lead does indeed have\
      \ a lower melting point than zinc.\n\nTherefore, the answer is **YES**."
    f3e5c1c5-fb61-4fea-9a6b-c422cba84b8e: 'NO'
  1ab07f4546383177b4a00c23a20d21977eb572aef8da5685fb4805558e0fbe43:
    02b21463-3045-4647-9296-6af8e124186e: 'YES'
    3a470bea-82a0-4b24-a301-963e56fb4e46: 'YES'
    4019afac-8ae2-4b73-9f53-115f59112a73: 'YES'
    69cf66d9-dc3e-4b33-8a64-fa0291820c78: 'YES'
    76e1642c-7e46-4c6c-9996-c37e6d19db2b: "Yes. To determine if tin has a lower melting\
      \ point than lead, we need to consider the melting points of these two metals.\
      \ Tin (Sn) typically has a melting point around 238-240\xB0C, while lead (Pb)\
      \ melts at around 1567\xB0C.\n\nSince 238\xB0C < 1567\xB0C, it can be concluded\
      \ that tin indeed has a lower melting point than lead. Therefore, the answer\
      \ to the question \"Does tin have a lower melting point than lead?\" is Yes."
    798b51e0-99c0-48b6-84c0-00c95e9b9ff8: YES. Tin has a lower melting point than
      lead because tin (also known as tinplate) was an early form of aluminum alloy
      used in the production of cookware and household items in colonial America,
      whereas lead was used more for industrial applications like cannons and gunpowder.
      Tin's higher melting point allows it to resist heat better under certain conditions,
      which makes it easier to work with for many kitchen uses while still maintaining
      its properties necessary for cooking and heating.
    cc5d96a1-f930-43f0-afe9-c8a8ce0b87c2: NO.
    e827423a-7da3-40c7-a9c1-db29bf547c0f: 'NO'
    f120c59f-3472-4747-93cf-f67003eb778c: 'NO'
    f4419430-860f-4e9a-b12c-492a64a45aaf: 'NO'
  2ff4c879d13726eb19d6023881ad4beb0398b82dd3f2181e3e8ef8c8f2759282:
    0abe1d55-8701-48b9-bf6a-37b18417b696: "YES. To determine if silver has a lower\
      \ melting point than gold, we need to consider their atomic masses and typical\
      \ melting points.\n\n1. **Atomic Masses**: \n   - The atomic mass of silver\
      \ (Ag) is approximately 107.86 g/mol.\n   - The atomic mass of gold (Au) is\
      \ approximately 197.45 g/mol.\n\n2. **Melting Points**:\n   - Silver melts at\
      \ around 1803\xB0C (3513\xB0F).\n   - Gold melts at around 1064\xB0C (1920\xB0\
      F).\n\n3. **Temperature Difference**:\n   - The temperature difference between\
      \ the melting points of silver and gold is:\n     \\[\n     1803\xB0C - 1064\xB0\
      C = 739\xB0C\n     \\]\n\nSince 739\xB0C is significantly higher than 1803\xB0\
      C for both metals, it confirms that silver has a much lower melting point compared\
      \ to gold. Therefore, yes, silver does indeed have a lower melting point than\
      \ gold."
    24868299-241f-40a1-bff7-25284042e7c4: 'YES'
    4ea8197b-b5ef-44d3-839d-4f5d9ae7d4ee: NO.
    5faaf07a-21a4-4147-99a6-f9f1c15207a9: NO.
    77b66da7-3390-4fcd-a7f0-0a798c3e61e1: "YES. Silver has a much higher melting point\
      \ (660-728\xB0C) compared to gold's 1,083\xB0C. This makes silver more susceptible\
      \ to thermal expansion, which affects its physical properties and can lead to\
      \ various issues such as deformation during storage and transportation."
    b4d1a802-5f81-4a4c-984f-0edca55d533c: NO.
    b6412b62-666b-4723-820d-9bf580dea5be: "YES. Silver has a significantly lower melting\
      \ point compared to gold. To understand this in more detail:\n\n1. **Melting\
      \ Points**: The melting points of metals can vary widely depending on factors\
      \ such as the purity of the metal, temperature at which it's melted, and its\
      \ chemical properties. Generally, gold has higher melting points (around 2,703\xB0\
      F) compared to silver (around 2,567\xB0F).\n\n2. **Purity**: Silver typically\
      \ has a lower melting point due to its relatively low impurities that form compounds\
      \ like silver chloride (AgCl). Gold, on the other hand, contains a high amount\
      \ of impurities like gold (Au), which can reduce its melting point.\n\n3. **Chemical\
      \ Properties**: Both metals can undergo phase transitions under certain conditions,\
      \ but their transition points are generally different. For example, silver is\
      \ often considered more stable at room temperature and may not require extreme\
      \ temperatures for complete melting, whereas gold must be heated to extremely\
      \ high temperatures to melt.\n\n4. **Physical Properties**: Despite having a\
      \ lower melting point, silver is much more conductive than gold because its\
      \ atoms are arranged in a lattice structure, allowing electrons to move more\
      \ easily. This property makes silver less suitable for direct contact with heat\
      \ sources or electronic components.\n\nTherefore, given these factors, it is\
      \ reasonable to conclude that silver has a lower melting point than gold."
    d00feb3f-d05c-491b-9c59-78078b46b09f: 'NO'
    d02010ce-a605-4e81-97b6-433836577dfe: "Yes. To determine whether silver has a\
      \ lower melting point than gold, we need to understand the general properties\
      \ of both metals and how their atomic structures affect their melting points.\n\
      \n1. **Atomic Structure**: Both silver (Ag) and gold (Au) are composed of atoms\
      \ that follow specific arrangements in their crystal structures. For example,\
      \ silver's structure includes 3d orbitals around each of its outer electrons,\
      \ while gold's structure involves 4s and 5p orbitals for its outer electrons.\n\
      \n2. **Electron Configuration**: The electron configuration of both elements\
      \ determines their chemical behavior but does not significantly influence their\
      \ physical properties such as melting points. Electron configurations do not\
      \ change the fundamental energy levels involved in bonding.\n\n3. **Melting\
      \ Point Determination**: Melting point refers to the temperature at which a\
      \ substance transitions from a solid state to a liquid state without passing\
      \ through a gaseous phase. The melting point of an element primarily depends\
      \ on the strength of its bonds rather than the number of valence electrons.\n\
      \n4. **Metallic Properties**: In metallic forms, metal atoms generally form\
      \ covalent bonds between their inner electrons, making them relatively stable\
      \ under normal conditions due to strong interatomic forces. This stability contrasts\
      \ with the higher melting points of ionic compounds, where the ions experience\
      \ more repulsive forces.\n\n5. **Comparative Analysis**: Given the above principles,\
      \ it can be inferred that the arrangement of electrons in silver\u2019s structure\
      \ (with 3d orbitals) might allow for better bonding compared to gold\u2019s\
      \ arrangement (with 4s and 5p orbitals). However, since these orbital types\
      \ do not directly correlate with the exact melting points, it remains uncertain\
      \ if one has a lower melting point than the other based solely on their structural\
      \ characteristics.\n\nIn conclusion, while there is a subtle difference in the\
      \ number of valence electrons (3 vs. 5), the overall stability and bonding within\
      \ their structures makes it difficult to definitively say that silver has a\
      \ lower melting point than gold. Therefore, the answer to this question is:\
      \ Yes, it would seem that silver has a lower melting point than gold."
    e4250c25-7d8b-4b53-bcce-24a66ae6297c: 'YES'
  3e01e73bf52930aa27ffe32fd0c4a2f959fde780dfd1205e7a8cb3fc15298d42:
    0bb747fb-0cb4-4543-a86a-5ef851cbc804: 'YES'
    15e53cea-9517-4d63-9115-c2249dd29757: YES. Gold has a higher melting point than
      copper due to its atomic structure and chemical properties. Gold atoms have
      an outer electron shell that can hold up to eight electrons, which makes it
      highly electronegative. This high electronegativity causes the valence bond
      in gold to be stronger than in copper, resulting in a higher melting point for
      gold. In contrast, copper's valence bond is weaker, leading to a lower melting
      point.
    2cca05af-9130-425a-abe3-0433d4ce4e0d: "Yes, gold has a lower melting point than\
      \ copper.\n\nTo arrive at this conclusion, let's consider the properties of\
      \ both metals:\n\n1. **Melting Point**: The melting point of a metal refers\
      \ to its lowest temperature at which it solidifies into a liquid state without\
      \ any further heating required. Metals generally form crystals when they melt,\
      \ meaning their melting points are lower than those of their non-melting counterparts.\n\
      \n2. **Properties Comparison**:\n   - **Gold**: It has a much higher melting\
      \ point (about 1064\xB0C) compared to copper (around 1083\xB0C). This is because\
      \ gold has an atomic structure that allows it to achieve a higher melting point\
      \ due to its higher density and the presence of impurities such as platinum.\n\
      \   - **Copper**: Its melting point is approximately 1,595\xB0C. Copper is denser\
      \ and less susceptible to thermal expansion compared to gold, making it more\
      \ prone to forming crystals under high temperatures.\n\nTherefore, given these\
      \ properties, gold indeed has a lower melting point than copper."
    44d5c81c-767b-4f12-a84c-084105375c6b: "YES. Gold has a higher melting point than\
      \ copper. The melting points of these two metals are approximately 327\xB0C\
      \ (604\xB0F) for gold and 1085\xB0C (1965\xB0F) for copper. This difference\
      \ in melting points explains why gold can be more readily melted into sheets\
      \ or ingots compared to copper, which solidifies at much lower temperatures."
    8fece025-f9a1-4a5f-9119-5a29449da399: "YES. Gold has a higher melting point (1064\xB0\
      C) compared to copper's 1083\xB0C at standard atmospheric pressure. This makes\
      \ gold more stable in heat treatment processes like soldering and brazing."
    95a60789-abdd-4ce1-8375-eeed07457948: 'Yes, gold has a lower melting point than
      copper.


      To arrive at this conclusion, we need to understand the atomic structure of
      both metals. Gold (Au) has an atomic number of 79, consisting of three valence
      electrons in its outer shell. Copper (Cu) has an atomic number of 29, consisting
      of one valence electron in its outer shell.


      The difference between the number of valence electrons determines the metal''s
      ability to lose or gain electrons during chemical reactions. When compared to
      other metals like silver (Ag), which also consists of three valence electrons
      but loses its last valence electron in a process called oxidation, gold''s valence
      shell is more tightly packed due to its higher atomic number.


      In general, metals tend to form more stable compounds when they have fewer valence
      electrons available for bonding. This stability leads to gold having a lower
      melting point than copper because it needs less energy to overcome the repulsion
      forces that would be needed if it were to lose an extra electron compared to
      copper, which is closer to the atomic number range where losing an electron
      would be energetically unfavorable.


      Thus, based on the principle of reducing the energy required to achieve a metallic
      bond, gold will melt at a lower temperature than copper.'
    b622af72-98c4-4aee-9f15-e7b69886e420: "YES. Gold has a higher melting point than\
      \ copper due to its different crystal structures and chemical composition. When\
      \ heated above the critical temperature, gold undergoes an intermetallic compound\
      \ transformation that results in a solid solution with 109.5\xB0C (274\xB0F)\
      \ at room temperature. Copper, on the other hand, melts at 1083\xB0C (1930\xB0\
      F), which means it cannot melt below this temperature without boiling. Therefore,\
      \ gold's higher melting point makes it more stable under normal conditions compared\
      \ to copper."
    ba506dbf-7526-487b-ab53-be78776005b4: 'YES'
    c4610c7f-934b-431b-abd7-536ecabcc278: 'YES'
    d86968b9-8601-4fa3-bbd7-403cd850ac92: 'YES'
  89ad1e0f43b7858d2b1eaf872fcbb329071996233d21161b474e358d816b011a:
    14f35bd9-be6c-4746-8aa5-2bcf81dd6b17: NO.
    1b223ac0-eded-48c9-8fbb-b2fee806312c: "YES.\n\nTo determine whether aluminum has\
      \ a lower melting point than silver, we need to consider the physical properties\
      \ that affect melting points. \n\n1. **Physical Properties**: Aluminum and silver\
      \ both have relatively high melting points compared to other metals like copper,\
      \ gold, or platinum. However, they differ in their specific crystalline structures\
      \ and bonding strengths.\n   \n2. **Aluminum's Specific Structure**: \n   -\
      \ Aluminum atoms are arranged as an array of hexagonal close-packed (HCP) structure.\n\
      \   - This arrangement results in a lattice constant of about 6.48 \xC5 for\
      \ a single crystal at room temperature.\n\n3. **Silver's Specific Structure**:\n\
      \   - Silver atoms form a face-centered cubic (FCC) structure.\n   - The lattice\
      \ constant for FCC is approximately 0.95 \xC5.\n\n4. **Melting Point Comparison**:\n\
      \   - For HCP (hexagonal close-packed):\n     \\[\n     \\text{Melting Point}_{\\\
      text{Aluminum}} = 1083^\\circ \\text{C}\n     \\]\n   - For FCC (face-centered\
      \ cubic):\n     \\[\n     \\text{Melting Point}_{\\text{Silver}} = 1073^\\circ\
      \ \\text{C}\n     \\]\n\nSince the melting points of both materials differ significantly\
      \ between their respective structures, it follows that aluminum has a higher\
      \ melting point than silver.\n\nTherefore, the answer is **YES**, aluminum does\
      \ have a lower melting point than silver."
    416e55b2-acc9-4c4f-bdac-15faaee5d8c9: YES. Aluminum has a higher melting point
      than silver, which means that aluminum can melt at a lower temperature than
      silver without changing its physical properties significantly. However, the
      difference in melting points is relatively small compared to other metals like
      copper, gold, or platinum, where significant differences exist. The main difference
      lies in the atomic structure and chemical bonding between elements.
    53338cd0-2965-4f91-b057-a5ce11aced66: "Yes. Aluminum has a higher melting point\
      \ than silver (1064\xB0C vs. 975\xB0C)."
    a909d732-bc1a-4ecd-9710-45ad5f41b1c2: 'YES'
    b785f0b7-14e1-43bf-9f82-08e560b7999d: YES. Aluminum has a lower melting point
      than silver because its atomic structure is more rigid compared to that of silver.
      Alumina (a form of aluminum) has a higher melting point due to its stronger
      crystalline structure. The difference in their melting points stems from the
      arrangement of atoms within each material's crystal lattice.
    d30d2839-1ac8-45a3-8cc7-97443da25ddf: "YES. Aluminum has a lower melting point\
      \ than silver due to its higher atomic number (26) compared to 7. The difference\
      \ in atomic numbers between the two metals accounts for the difference in their\
      \ melting points. Aluminum typically melts at around 341\xB0C (608\xB0F), while\
      \ silver usually melts at about 907\xB0C (1600\xB0F)."
    d710be17-fe4f-4698-9d59-3a142ea63264: "YES. Aluminum has a much higher melting\
      \ point than silver, making it the material that melts at a significantly lower\
      \ temperature compared to silver. The standard melting point for aluminum is\
      \ around 660\xB0C (1,292\xB0F), while silver's melting point is approximately\
      \ 327\xB0C (598\xB0F). Therefore, aluminum typically does not melt below its\
      \ boiling point at room temperature, whereas silver can remain in a solid state\
      \ even at very low temperatures."
    dd44d2c5-57dc-4c34-81dc-4945dd6aa926: 'YES'
    e4489776-ca16-4f7b-8c8a-b274965041e8: Yes. Aluminum has a lower melting point
      than silver because the atomic structure of aluminum (aluminum) consists primarily
      of aluminum atoms, while silver (silver) contains silver atoms bonded to an
      oxygen atom in its crystal lattice structure. The overall stability of aluminum
      compounds due to its larger atomic size and fewer shared electrons makes it
      more susceptible to thermal expansion and contraction compared to silver. This
      susceptibility means that when heated, aluminum expands more rapidly than silver,
      causing it to melt at a lower temperature than silver under similar conditions.
  ded558b05a046b839e64af249a8142eb22dcf5e906ec21dab6317894fd916179:
    0477f672-7152-40ef-9205-7008f7ae7532: 'Yes. To determine if zinc has a lower melting
      point than aluminum, we need to consider the physical properties that influence
      temperature changes. Melting points typically correlate with the hardness of
      metal alloys.


      1. **Aluminum**: Aluminum is generally harder than zinc because it forms more
      solid solutions when combined in an alloy. This means that while both metals
      can form close-melted structures under certain conditions (such as low temperatures),
      aluminum usually melts at a higher temperature compared to zinc.


      2. **Zinc**: Zinc also forms close-melted structures similarly to aluminum.
      However, its structure tends to be less rigid and less hardenable under normal
      heating conditions compared to aluminum''s more rigid structure. This makes
      zinc easier to melt and therefore has a lower melting point.


      3. **Temperature Dependence**: When considering melting points, the melting
      point of each metal is influenced by factors such as composition, crystalline
      structure, and environmental conditions like pressure and heat. The specific
      properties of the metal will affect how quickly it reaches its melting point.


      Based on these considerations, zinc typically does not have a lower melting
      point than aluminum. In fact, zinc is often considered slightly softer than
      aluminum due to its lower crystallinity and more flexible structure.'
    2dad8a43-eaef-42f5-ab78-516c4bee1dbf: 'NO'
    2f5dcf3b-6b41-4fae-a73b-5d681f6950ec: 'NO'
    45214a65-3f68-493a-a778-d467988600c3: 'YES'
    47c7e6b9-5805-45e4-9a78-f0de2e8f8e81: NO.
    7e26f45c-7b83-470c-8986-7644a5862999: NO.
    b4cc1364-07c3-42b6-b0a9-bd1a55fd1aed: 'Yes'
    b5a84ee8-f9f1-4b03-9e48-7f562a6464df: Yes.
    d953fc2b-9627-498a-bb7d-271038e9b9d2: 'YES'
    f1f6c377-8d5f-4a63-b34f-5f7926db8082: YES. Aluminum has a higher melting point
      than zinc, so it would be more likely to melt at a lower temperature than zinc.
sampling_params:
  max_new_tokens: 2000
  temperature: 0.7
  top_p: 0.9
